/*--------------------------------*- C++ -*----------------------------------*\
| =========                 |                                                 |
| \\      /  F ield         | OpenFOAM: The Open Source CFD Toolbox           |
|  \\    /   O peration     | Version:  v2006                                 |
|   \\  /    A nd           | Website:  www.openfoam.com                      |
|    \\/     M anipulation  |                                                 |
\*---------------------------------------------------------------------------*/
FoamFile
{
    version     2.0;
    format      ascii;
    class       volScalarField;
    location    "1";
    object      p;
}
// * * * * * * * * * * * * * * * * * * * * * * * * * * * * * * * * * * * * * //

dimensions      [0 2 -2 0 0 0 0];


internalField   nonuniform List<scalar> 
400
(
2.70733e-09
-0.0791404
-0.172974
-0.236678
-0.23895
-0.157801
0.0199084
0.297805
0.669499
1.11838
1.61792
2.13263
2.62008
3.03415
3.33017
3.47225
3.44325
3.25759
2.97913
2.74035
0.0717689
-0.0149135
-0.108276
-0.176037
-0.19696
-0.151633
-0.0258781
0.187002
0.485052
0.857034
1.28242
1.73217
2.17039
2.55723
2.85314
3.02491
3.05349
2.94222
2.72309
2.49052
0.156107
0.0443149
-0.0645026
-0.143065
-0.180263
-0.160314
-0.0696797
0.0993454
0.347108
0.665701
1.03871
1.44174
1.84372
2.20924
2.50189
2.68898
2.74748
2.6672
2.44478
2.15385
0.213263
0.0674552
-0.0690961
-0.167337
-0.222994
-0.222876
-0.154221
-0.00916354
0.213641
0.507991
0.859677
1.24669
1.64013
2.00585
2.30704
2.50789
2.57843
2.49439
2.22284
1.83697
0.219575
0.0384696
-0.128778
-0.248847
-0.321966
-0.336449
-0.27998
-0.144715
0.0711534
0.362336
0.715807
1.11069
1.51864
1.90491
2.22998
2.45253
2.53372
2.4349
2.09728
1.60251
0.158374
-0.057328
-0.254674
-0.394969
-0.481585
-0.50362
-0.448938
-0.309769
-0.0841232
0.223186
0.599754
1.02511
1.47057
1.89944
2.26792
2.52722
2.6277
2.51506
2.10507
1.49212
0.0152681
-0.234038
-0.459345
-0.615838
-0.709478
-0.729873
-0.66503
-0.50737
-0.254913
0.0878061
0.508811
0.987813
1.49537
1.99219
2.42892
2.74744
2.88482
2.76814
2.28438
1.54306
-0.224574
-0.506393
-0.756221
-0.922487
-1.0139
-1.02082
-0.931675
-0.739378
-0.44213
-0.0441902
0.443083
0.999891
1.59631
2.19038
2.72649
3.13532
3.33737
3.23588
2.68124
1.79918
-0.578562
-0.891331
-1.16045
-1.32699
-1.40332
-1.38137
-1.25074
-1.00534
-0.643788
-0.16987
0.406278
1.06629
1.78084
2.50616
3.18034
3.72128
4.02874
3.97418
3.35786
2.32121
-1.06867
-1.40953
-1.68978
-1.84257
-1.88592
-1.81487
-1.62145
-1.30144
-0.854108
-0.282359
0.405993
1.19573
2.06027
2.95612
3.81634
4.54513
5.01676
5.05963
4.40247
3.19885
-1.72385
-2.08718
-2.3653
-2.48342
-2.46857
-2.32159
-2.0388
-1.61897
-1.06229
-0.370028
0.454026
1.40048
2.44899
3.56026
4.66564
5.65647
6.37711
6.59774
5.9429
4.56868
-2.58391
-2.95835
-3.21227
-3.2639
-3.15507
-2.89642
-2.49114
-1.94226
-1.25088
-0.415463
0.566726
1.69593
2.96325
4.34004
5.76259
7.11395
8.20638
8.73346
8.16695
6.64384
-3.70616
-4.06865
-4.26055
-4.19659
-3.94278
-3.5252
-2.95679
-2.24587
-1.39385
-0.394363
0.765191
2.09974
3.61907
5.31495
7.14042
8.98168
10.6234
11.6641
11.3537
9.76624
-5.17846
-5.48084
-5.54385
-5.28779
-4.81667
-4.17879
-3.39919
-2.49115
-1.45438
-0.274599
1.07501
2.63024
4.42879
6.49659
8.8227
11.3198
13.7648
15.6524
15.924
14.5049
-7.14649
-7.28387
-7.09599
-6.52803
-5.73872
-4.80401
-3.76022
-2.62195
-1.38275
-0.0156843
1.52537
3.30381
5.39592
7.87962
10.8089
14.1653
17.7691
21.0383
22.528
21.8631
-9.85824
-9.60208
-8.94108
-7.87599
-6.63258
-5.31228
-3.95341
-2.56165
-1.11582
0.430107
2.14679
4.1313
6.50897
9.43044
13.0545
17.5027
22.7449
28.2357
32.1533
33.6276
-13.6931
-12.5799
-11.0583
-9.22666
-7.36233
-5.56933
-3.86234
-2.21707
-0.584009
1.10936
2.96195
5.1075
7.72734
11.0644
15.4305
21.1897
28.646
37.5626
46.0341
52.5475
-19.4536
-16.3594
-13.2313
-10.2848
-7.65248
-5.351
-3.31945
-1.47089
0.28827
2.06154
3.97383
6.19003
8.94291
12.5733
17.5842
24.6945
34.7961
48.5909
65.6824
84.2503
-30.7213
-21.2497
-14.7068
-10.2614
-6.87322
-4.19117
-1.98934
-0.0824308
1.67385
3.4058
5.24817
7.37392
10.037
13.6435
18.8784
26.898
39.5162
59.9315
96.2347
155.618
-53.5311
-27.6011
-15.2699
-8.97827
-4.88402
-1.97814
0.239642
2.08805
3.76216
5.40139
7.13798
9.13893
11.6642
15.1756
20.5715
29.653
45.7751
76.2616
147.951
318.154
)
;

boundaryField
{
    movingWall
    {
        type            zeroGradient;
    }
    fixedWalls
    {
        type            zeroGradient;
    }
    frontAndBack
    {
        type            empty;
    }
}


// ************************************************************************* //
