/*--------------------------------*- C++ -*----------------------------------*\
| =========                 |                                                 |
| \\      /  F ield         | OpenFOAM: The Open Source CFD Toolbox           |
|  \\    /   O peration     | Version:  v2006                                 |
|   \\  /    A nd           | Website:  www.openfoam.com                      |
|    \\/     M anipulation  |                                                 |
\*---------------------------------------------------------------------------*/
FoamFile
{
    version     2.0;
    format      ascii;
    class       volVectorField;
    location    "1";
    object      U;
}
// * * * * * * * * * * * * * * * * * * * * * * * * * * * * * * * * * * * * * //

dimensions      [0 1 -1 0 0 0 0];


internalField   nonuniform List<vector> 
400
(
(0.000235656 -0.00023336 0)
(-0.000341103 6.73831e-05 0)
(-0.00240083 0.000331146 0)
(-0.00543723 0.000422052 0)
(-0.0088127 0.000369802 0)
(-0.0119993 0.000226238 0)
(-0.0146208 3.88686e-05 0)
(-0.016445 -0.000156366 0)
(-0.0173617 -0.000335645 0)
(-0.017357 -0.000484792 0)
(-0.0164915 -0.000596237 0)
(-0.0148837 -0.000666411 0)
(-0.0126983 -0.00069388 0)
(-0.0101367 -0.000678198 0)
(-0.00742918 -0.000619423 0)
(-0.00482439 -0.000518303 0)
(-0.00257463 -0.000377309 0)
(-0.000913142 -0.000202374 0)
(-1.0683e-05 -9.55098e-06 0)
(0.000124349 0.000125133 0)
(-8.37304e-05 0.00032119 0)
(-0.00293073 0.00283717 0)
(-0.00876449 0.00508632 0)
(-0.0164517 0.00627357 0)
(-0.0246609 0.00638879 0)
(-0.032285 0.00565285 0)
(-0.0385048 0.00433527 0)
(-0.0427993 0.00268627 0)
(-0.0449147 0.000914138 0)
(-0.0448172 -0.000816014 0)
(-0.0426493 -0.00237511 0)
(-0.0386921 -0.00366148 0)
(-0.0333375 -0.00459413 0)
(-0.0270638 -0.00510969 0)
(-0.0204118 -0.00516371 0)
(-0.0139562 -0.00473737 0)
(-0.00826354 -0.00385089 0)
(-0.00383651 -0.0025868 0)
(-0.00105062 -0.00114157 0)
(2.72942e-05 4.00159e-06 0)
(-0.000461898 0.00248603 0)
(-0.00583798 0.00880046 0)
(-0.015222 0.0137496 0)
(-0.0268529 0.0161892 0)
(-0.038895 0.0161577 0)
(-0.0498965 0.0141422 0)
(-0.0587832 0.0107528 0)
(-0.0648702 0.00657306 0)
(-0.0678267 0.00210115 0)
(-0.0676173 -0.00225975 0)
(-0.064445 -0.00619005 0)
(-0.058703 -0.00943665 0)
(-0.0509366 -0.0117994 0)
(-0.0418098 -0.0131259 0)
(-0.0320725 -0.0133159 0)
(-0.022519 -0.0123386 0)
(-0.0139303 -0.0102615 0)
(-0.00700356 -0.00729348 0)
(-0.00231633 -0.00385803 0)
(-9.5384e-05 -0.000777962 0)
(-0.000766179 0.00617262 0)
(-0.00847897 0.017835 0)
(-0.0211739 0.0260994 0)
(-0.0363966 0.0298458 0)
(-0.0518146 0.0293409 0)
(-0.0657013 0.0254544 0)
(-0.0768143 0.0192309 0)
(-0.0843781 0.0116673 0)
(-0.088031 0.00361924 0)
(-0.0877521 -0.00421697 0)
(-0.0837933 -0.0112861 0)
(-0.0766246 -0.0171467 0)
(-0.0668924 -0.0214488 0)
(-0.0553849 -0.023926 0)
(-0.042998 -0.0244047 0)
(-0.0306917 -0.0228323 0)
(-0.0194285 -0.0193224 0)
(-0.0101011 -0.0142138 0)
(-0.00353706 -0.00814669 0)
(-0.000196279 -0.00221338 0)
(-0.00101376 0.0111725 0)
(-0.0108464 0.0296367 0)
(-0.0266515 0.041785 0)
(-0.0452615 0.046831 0)
(-0.0638294 0.0454931 0)
(-0.080367 0.0391728 0)
(-0.0935017 0.0294479 0)
(-0.102409 0.0177939 0)
(-0.106725 0.00546588 0)
(-0.106456 -0.00651824 0)
(-0.101892 -0.0173474 0)
(-0.0935522 -0.026374 0)
(-0.0821425 -0.0330798 0)
(-0.0685295 -0.037063 0)
(-0.0537132 -0.0380515 0)
(-0.0387927 -0.0359432 0)
(-0.0249083 -0.0308685 0)
(-0.0131752 -0.0232643 0)
(-0.00472097 -0.0139518 0)
(-0.000283976 -0.00425493 0)
(-0.00123342 0.0173509 0)
(-0.013061 0.0440294 0)
(-0.0318578 0.0606536 0)
(-0.053739 0.0669981 0)
(-0.0753292 0.064461 0)
(-0.0943842 0.05515 0)
(-0.109426 0.0412909 0)
(-0.119613 0.0249031 0)
(-0.124606 0.00767269 0)
(-0.124444 -0.00904995 0)
(-0.119448 -0.0241951 0)
(-0.110157 -0.0369056 0)
(-0.0973008 -0.046484 0)
(-0.0817802 -0.0523708 0)
(-0.0646633 -0.0541598 0)
(-0.0471675 -0.0516514 0)
(-0.0306164 -0.0449378 0)
(-0.0163812 -0.0344995 0)
(-0.00594472 -0.0212988 0)
(-0.000371281 -0.00689175 0)
(-0.00145048 0.0246575 0)
(-0.0152518 0.0609409 0)
(-0.0370005 0.0826324 0)
(-0.0620783 0.0902616 0)
(-0.0865742 0.0861434 0)
(-0.108006 0.0732855 0)
(-0.124829 0.0546889 0)
(-0.136223 0.0329819 0)
(-0.141905 0.0103016 0)
(-0.141957 -0.0116754 0)
(-0.136719 -0.0316359 0)
(-0.126725 -0.0485247 0)
(-0.11268 -0.0614627 0)
(-0.0954699 -0.069709 0)
(-0.0761858 -0.0726763 0)
(-0.0561343 -0.0699986 0)
(-0.0368215 -0.0616461 0)
(-0.0199086 -0.0480628 0)
(-0.00730377 -0.0303 0)
(-0.00047086 -0.0101646 0)
(-0.00168639 0.0331126 0)
(-0.0175272 0.0803829 0)
(-0.0422362 0.107687 0)
(-0.0704191 0.116523 0)
(-0.0976302 0.110391 0)
(-0.121197 0.0934183 0)
(-0.139572 0.069517 0)
(-0.152022 0.0419835 0)
(-0.15836 0.013408 0)
(-0.158734 -0.0142353 0)
(-0.153492 -0.0394284 0)
(-0.143122 -0.0609481 0)
(-0.128251 -0.0777432 0)
(-0.109685 -0.0888713 0)
(-0.0884671 -0.0935066 0)
(-0.0659419 -0.0910237 0)
(-0.0437782 -0.0811526 0)
(-0.0239568 -0.0641798 0)
(-0.008903 -0.0411622 0)
(-0.000596193 -0.0141686 0)
(-0.00196139 0.042793 0)
(-0.019976 0.102422 0)
(-0.0476544 0.135771 0)
(-0.0787561 0.145599 0)
(-0.108318 0.13692 0)
(-0.133568 0.115238 0)
(-0.15307 0.0855194 0)
(-0.166274 0.051772 0)
(-0.173153 0.0170135 0)
(-0.173946 -0.0165451 0)
(-0.168999 -0.0472496 0)
(-0.158714 -0.073766 0)
(-0.143568 -0.0949001 0)
(-0.12419 -0.109496 0)
(-0.10148 -0.116428 0)
(-0.0767264 -0.114693 0)
(-0.0517067 -0.103617 0)
(-0.0287328 -0.0831439 0)
(-0.0108624 -0.0541898 0)
(-0.000763986 -0.0190589 0)
(-0.00229987 0.053826 0)
(-0.0226798 0.127144 0)
(-0.0532772 0.16676 0)
(-0.0869115 0.177121 0)
(-0.118158 0.165198 0)
(-0.144306 0.138176 0)
(-0.164205 0.102222 0)
(-0.177626 0.0620625 0)
(-0.184796 0.0210765 0)
(-0.186076 -0.0183922 0)
(-0.181803 -0.0546614 0)
(-0.17224 -0.0863777 0)
(-0.15763 -0.112263 0)
(-0.13831 -0.130957 0)
(-0.114886 -0.140974 0)
(-0.0884495 -0.140798 0)
(-0.060768 -0.129126 0)
(-0.0344556 -0.105285 0)
(-0.0133322 -0.0697877 0)
(-0.000998598 -0.0250631 0)
(-0.00273914 0.0663957 0)
(-0.0257375 0.154618 0)
(-0.0590611 0.200351 0)
(-0.0944942 0.2104 0)
(-0.126285 0.194299 0)
(-0.152054 0.161281 0)
(-0.171191 0.118829 0)
(-0.183978 0.0723513 0)
(-0.190996 0.0254539 0)
(-0.192774 -0.0195437 0)
(-0.189628 -0.0610857 0)
(-0.181634 -0.0979325 0)
(-0.168704 -0.12882 0)
(-0.150743 -0.152229 0)
(-0.127881 -0.166283 0)
(-0.100789 -0.168802 0)
(-0.0710151 -0.157578 0)
(-0.0413594 -0.130912 0)
(-0.0165168 -0.0884648 0)
(-0.00133965 -0.0325076 0)
(-0.00334396 0.080771 0)
(-0.029297 0.184855 0)
(-0.0648847 0.235932 0)
(-0.100819 0.244242 0)
(-0.131316 0.222723 0)
(-0.154755 0.183062 0)
(-0.171421 0.13412 0)
(-0.182321 0.0818432 0)
(-0.188502 0.0298554 0)
(-0.190693 -0.0197689 0)
(-0.189178 -0.065801 0)
(-0.183802 -0.10729 0)
(-0.174064 -0.143134 0)
(-0.159296 -0.171755 0)
(-0.138937 -0.190907 0)
(-0.112936 -0.197635 0)
(-0.0822803 -0.188499 0)
(-0.049673 -0.160208 0)
(-0.0207067 -0.110832 0)
(-0.0018552 -0.0418643 0)
(-0.00423134 0.0973669 0)
(-0.0335892 0.217737 0)
(-0.0704816 0.272368 0)
(-0.104725 0.276687 0)
(-0.131104 0.248167 0)
(-0.149407 0.201338 0)
(-0.161247 0.146348 0)
(-0.168572 0.089393 0)
(-0.172962 0.0337994 0)
(-0.175344 -0.0188803 0)
(-0.175954 -0.0679757 0)
(-0.174381 -0.11303 0)
(-0.169674 -0.153294 0)
(-0.160495 -0.187313 0)
(-0.145389 -0.212595 0)
(-0.123231 -0.225392 0)
(-0.0939284 -0.220737 0)
(-0.0595347 -0.193028 0)
(-0.0263129 -0.137571 0)
(-0.00266507 -0.05383 0)
(-0.00561277 0.116852 0)
(-0.0389315 0.252885 0)
(-0.0752248 0.30765 0)
(-0.104184 0.304644 0)
(-0.122301 0.267277 0)
(-0.131687 0.213115 0)
(-0.135728 0.153209 0)
(-0.137422 0.0934994 0)
(-0.138834 0.0365898 0)
(-0.141021 -0.0167941 0)
(-0.144131 -0.0667626 0)
(-0.147518 -0.113548 0)
(-0.149824 -0.156973 0)
(-0.149069 -0.19597 0)
(-0.142806 -0.228083 0)
(-0.128504 -0.248964 0)
(-0.104331 -0.252002 0)
(-0.0707349 -0.22851 0)
(-0.0338717 -0.169323 0)
(-0.00398309 -0.069455 0)
(-0.00783732 0.14025 0)
(-0.0455709 0.289281 0)
(-0.0775223 0.338277 0)
(-0.0954599 0.323413 0)
(-0.099584 0.275451 0)
(-0.0954053 0.214617 0)
(-0.0883331 0.151972 0)
(-0.0822477 0.0924231 0)
(-0.079435 0.037353 0)
(-0.0808856 -0.0136037 0)
(-0.0865981 -0.0614774 0)
(-0.095762 -0.10731 0)
(-0.106801 -0.151683 0)
(-0.11732 -0.194234 0)
(-0.124047 -0.233019 0)
(-0.122942 -0.263635 0)
(-0.109782 -0.278154 0)
(-0.082019 -0.264319 0)
(-0.0438915 -0.206301 0)
(-0.00616736 -0.0902683 0)
(-0.0112569 0.168916 0)
(-0.0529134 0.324342 0)
(-0.0732384 0.358154 0)
(-0.0713937 0.326122 0)
(-0.0543366 0.266872 0)
(-0.0317522 0.201656 0)
(-0.0106825 0.139918 0)
(0.00480254 0.0845243 0)
(0.0127782 0.03519 0)
(0.0126648 -0.0096422 0)
(0.00470844 -0.0518758 0)
(-0.0102491 -0.0933095 0)
(-0.030752 -0.135341 0)
(-0.0545104 -0.178593 0)
(-0.0780341 -0.222246 0)
(-0.0962368 -0.26283 0)
(-0.102345 -0.292259 0)
(-0.0892921 -0.295221 0)
(-0.0560646 -0.247235 0)
(-0.00959271 -0.118237 0)
(-0.01563 0.205115 0)
(-0.0569286 0.352146 0)
(-0.0519053 0.356808 0)
(-0.0181283 0.303309 0)
(0.0273596 0.235125 0)
(0.0715535 0.170603 0)
(0.107509 0.115225 0)
(0.132392 0.0688695 0)
(0.145532 0.0294542 0)
(0.147198 -0.00553849 0)
(0.137984 -0.0385443 0)
(0.118594 -0.0718 0)
(0.0899243 -0.107319 0)
(0.0533935 -0.146755 0)
(0.0115675 -0.190926 0)
(-0.0308509 -0.23858 0)
(-0.0657827 -0.283746 0)
(-0.0813414 -0.310919 0)
(-0.0665907 -0.287589 0)
(-0.0140642 -0.156425 0)
(-0.0192842 0.253249 0)
(-0.0430767 0.359623 0)
(0.0114047 0.317874 0)
(0.0904108 0.2444 0)
(0.16721 0.175754 0)
(0.230747 0.120721 0)
(0.277891 0.0786216 0)
(0.309003 0.0462108 0)
(0.325539 0.0201804 0)
(0.328915 -0.00224866 0)
(0.320092 -0.0233913 0)
(0.299502 -0.0453295 0)
(0.267141 -0.0701505 0)
(0.222845 -0.100115 0)
(0.166871 -0.137611 0)
(0.10108 -0.184484 0)
(0.0309904 -0.239781 0)
(-0.0309542 -0.294218 0)
(-0.0611923 -0.316081 0)
(-0.018442 -0.211175 0)
(-0.000675782 0.286519 0)
(0.0380386 0.311911 0)
(0.173733 0.224934 0)
(0.300029 0.149158 0)
(0.39603 0.0960877 0)
(0.464812 0.060887 0)
(0.511605 0.0375615 0)
(0.541058 0.0214726 0)
(0.556687 0.00951832 0)
(0.560744 -0.000348794 0)
(0.55435 -0.00961394 0)
(0.537633 -0.0195829 0)
(0.509788 -0.0317085 0)
(0.469078 -0.0479316 0)
(0.412899 -0.0710667 0)
(0.338148 -0.105074 0)
(0.241831 -0.154592 0)
(0.123977 -0.222335 0)
(0.00926928 -0.294941 0)
(-0.00377896 -0.258322 0)
(0.26204 0.134159 0)
(0.383783 0.108071 0)
(0.563177 0.0581507 0)
(0.678974 0.0336015 0)
(0.74715 0.0208639 0)
(0.788798 0.0136816 0)
(0.814409 0.0095746 0)
(0.829616 0.00713034 0)
(0.83762 0.00555882 0)
(0.840113 0.00443073 0)
(0.837804 0.00348367 0)
(0.830647 0.00250492 0)
(0.817848 0.00124134 0)
(0.797629 -0.000713492 0)
(0.766772 -0.00409348 0)
(0.719866 -0.0101482 0)
(0.646901 -0.0210768 0)
(0.52808 -0.0432507 0)
(0.354059 -0.090436 0)
(0.252771 -0.113443 0)
)
;

boundaryField
{
    movingWall
    {
        type            fixedValue;
        value           uniform (1 0 0);
    }
    fixedWalls
    {
        type            noSlip;
    }
    frontAndBack
    {
        type            empty;
    }
}


// ************************************************************************* //
