/*--------------------------------*- C++ -*----------------------------------*\
| =========                 |                                                 |
| \\      /  F ield         | OpenFOAM: The Open Source CFD Toolbox           |
|  \\    /   O peration     | Version:  v2006                                 |
|   \\  /    A nd           | Website:  www.openfoam.com                      |
|    \\/     M anipulation  |                                                 |
\*---------------------------------------------------------------------------*/
FoamFile
{
    version     2.0;
    format      ascii;
    class       volScalarField;
    location    "2";
    object      p;
}
// * * * * * * * * * * * * * * * * * * * * * * * * * * * * * * * * * * * * * //

dimensions      [0 2 -2 0 0 0 0];


internalField   nonuniform List<scalar> 
400
(
4.42441e-06
-0.0884197
-0.200111
-0.290078
-0.324865
-0.280377
-0.141883
0.0955563
0.426666
0.835639
1.29627
1.77285
2.2221
2.59661
2.85015
2.94569
2.86656
2.63107
2.31006
2.04231
0.0847391
-0.0055854
-0.0922572
-0.153018
-0.169806
-0.12486
-0.00639436
0.18974
0.459564
0.790595
1.16198
1.5454
1.90686
2.20972
2.41897
2.50722
2.46293
2.29789
2.04382
1.76661
0.190476
0.0665673
-0.026513
-0.0820626
-0.0952438
-0.0532563
0.0530215
0.22641
0.463115
0.752285
1.07601
1.41006
1.72541
1.99065
2.17528
2.25421
2.21449
2.0582
1.77944
1.39178
0.277177
0.107548
-0.00752134
-0.070974
-0.0880839
-0.0494491
0.0519794
0.217596
0.443154
0.718281
1.02629
1.34466
1.64619
1.90078
2.07792
2.15013
2.09943
1.91759
1.56663
1.02571
0.318084
0.101221
-0.0397674
-0.114478
-0.136219
-0.0979513
0.00579919
0.175108
0.405055
0.685205
0.999236
1.32511
1.63576
1.90035
2.08588
2.16003
2.09796
1.88094
1.44218
0.735222
0.293623
0.030113
-0.137126
-0.222568
-0.246179
-0.202565
-0.087434
0.0981145
0.348401
0.652645
0.994361
1.35118
1.69503
1.99275
2.20695
2.29834
2.23332
1.98165
1.44823
0.564973
0.187129
-0.122398
-0.314336
-0.407196
-0.427021
-0.369726
-0.232012
-0.0160662
0.271687
0.620052
1.0122
1.42505
1.82885
2.18699
2.45604
2.58754
2.53659
2.25887
1.62767
0.552834
-0.018336
-0.373464
-0.586861
-0.681053
-0.688423
-0.606335
-0.432566
-0.1704
0.173096
0.586513
1.05292
1.5487
2.04235
2.49328
2.85066
3.05446
3.04503
2.75926
2.03069
0.74175
-0.342336
-0.742641
-0.972275
-1.05853
-1.04132
-0.920153
-0.694277
-0.368198
0.0505864
0.550983
1.11672
1.72452
2.34184
2.92433
3.41292
3.73348
3.80703
3.54407
2.72393
1.19017
-0.808984
-1.25347
-1.49114
-1.55588
-1.49751
-1.31906
-1.02206
-0.612424
-0.0977051
0.512275
1.20335
1.95431
2.73341
3.49392
4.16866
4.66708
4.88521
4.69596
3.80091
1.98349
-1.44916
-1.93528
-2.16777
-2.19091
-2.06863
-1.80974
-1.4192
-0.904602
-0.272854
0.469017
1.31123
2.23759
3.22051
4.21407
5.14492
5.90504
6.35928
6.3276
5.39659
3.25091
-2.30412
-2.82582
-3.03111
-2.98234
-2.76451
-2.3956
-1.88543
-1.2433
-0.474293
0.419657
1.43649
2.56947
3.80054
5.09064
6.36552
7.50172
8.32829
8.59281
7.70993
5.19457
-3.43254
-3.97539
-4.11534
-3.94797
-3.59025
-3.07363
-2.41407
-1.622
-0.698603
0.362545
1.57166
2.93757
4.45986
6.11633
7.84282
9.50917
10.9098
11.7001
11.04
8.14554
-4.92567
-5.45366
-5.45941
-5.10044
-4.54069
-3.82909
-2.98778
-2.02612
-0.937887
0.296107
1.70404
3.31811
5.16655
7.25942
9.56256
11.9607
14.23
15.9245
15.8449
12.6801
-6.93912
-7.3595
-7.10207
-6.43698
-5.58982
-4.62683
-3.57227
-2.42894
-1.17766
0.219108
1.81379
3.67059
5.85988
8.44543
11.4555
14.8335
18.3869
21.6018
22.8311
19.8599
-9.74775
-9.82901
-9.06905
-7.92329
-6.67695
-5.40141
-4.11029
-2.78847
-1.39531
0.131095
1.87301
3.93436
6.44152
9.53809
13.3623
17.9949
23.3842
29.0796
33.0375
31.6454
-13.8432
-13.033
-11.3517
-9.48107
-7.70133
-6.05648
-4.52395
-3.05029
-1.56181
0.0333026
1.84989
4.03546
6.78272
10.3421
15.0249
21.173
29.0675
38.6049
47.8557
51.6174
-20.3384
-17.163
-13.7897
-10.8956
-8.46445
-6.43226
-4.69797
-3.14006
-1.63885
-0.0712919
1.70564
3.87678
6.69878
10.5437
15.9595
23.7118
34.6935
49.7561
69.1693
87.9008
-32.1677
-22.2304
-15.5241
-11.3564
-8.36602
-6.11826
-4.36617
-2.89771
-1.54924
-0.181914
1.35146
3.24001
5.76067
9.35807
14.7934
23.332
36.8247
58.7359
98.7954
162.053
-51.2902
-26.9023
-14.914
-9.71315
-6.72469
-4.74027
-3.32748
-2.21722
-1.24322
-0.290478
0.748876
2.00962
3.69797
6.18304
10.2078
17.2553
30.1536
57.1174
129.509
290.853
)
;

boundaryField
{
    movingWall
    {
        type            zeroGradient;
    }
    fixedWalls
    {
        type            zeroGradient;
    }
    frontAndBack
    {
        type            empty;
    }
}


// ************************************************************************* //
