/*--------------------------------*- C++ -*----------------------------------*\
| =========                 |                                                 |
| \\      /  F ield         | OpenFOAM: The Open Source CFD Toolbox           |
|  \\    /   O peration     | Version:  v2006                                 |
|   \\  /    A nd           | Website:  www.openfoam.com                      |
|    \\/     M anipulation  |                                                 |
\*---------------------------------------------------------------------------*/
FoamFile
{
    version     2.0;
    format      ascii;
    class       volScalarField;
    location    "1";
    object      p;
}
// * * * * * * * * * * * * * * * * * * * * * * * * * * * * * * * * * * * * * //

dimensions      [0 2 -2 0 0 0 0];


internalField   nonuniform List<scalar> 
400
(
9.58605e-06
-0.0884109
-0.200102
-0.290069
-0.324855
-0.280367
-0.141873
0.0955662
0.426676
0.835649
1.29628
1.77286
2.22211
2.59662
2.85016
2.9457
2.86657
2.63108
2.31007
2.04232
0.0847479
-0.00557605
-0.0922476
-0.153008
-0.169796
-0.12485
-0.00638451
0.18975
0.459574
0.790605
1.16199
1.54541
1.90687
2.20973
2.41898
2.50723
2.46294
2.2979
2.04383
1.76662
0.190485
0.0665769
-0.0265033
-0.0820529
-0.095234
-0.0532465
0.0530313
0.22642
0.463125
0.752295
1.07602
1.41007
1.72542
1.99066
2.17529
2.25422
2.2145
2.05821
1.77945
1.39179
0.277187
0.107557
-0.00751163
-0.0709642
-0.0880741
-0.0494393
0.0519892
0.217605
0.443164
0.718291
1.0263
1.34467
1.6462
1.90079
2.07793
2.15014
2.09944
1.9176
1.56664
1.02572
0.318094
0.101231
-0.0397576
-0.114468
-0.136209
-0.0979414
0.00580902
0.175118
0.405065
0.685215
0.999246
1.32512
1.63577
1.90036
2.08589
2.16004
2.09797
1.88095
1.44219
0.735232
0.293633
0.0301228
-0.137116
-0.222558
-0.246169
-0.202556
-0.0874241
0.0981243
0.348411
0.652655
0.994371
1.35119
1.69504
1.99276
2.20696
2.29835
2.23333
1.98166
1.44824
0.564982
0.187138
-0.122388
-0.314326
-0.407186
-0.427011
-0.369716
-0.232002
-0.0160563
0.271697
0.620062
1.01221
1.42506
1.82886
2.187
2.45605
2.58755
2.5366
2.25888
1.62768
0.552844
-0.0183261
-0.373454
-0.586851
-0.681043
-0.688413
-0.606325
-0.432556
-0.17039
0.173106
0.586523
1.05293
1.54871
2.04236
2.49329
2.85067
3.05447
3.04504
2.75927
2.0307
0.74176
-0.342326
-0.742631
-0.972266
-1.05852
-1.04132
-0.920143
-0.694267
-0.368188
0.0505963
0.550993
1.11673
1.72453
2.34185
2.92434
3.41293
3.73349
3.80704
3.54408
2.72394
1.19018
-0.808974
-1.25346
-1.49113
-1.55587
-1.4975
-1.31905
-1.02205
-0.612414
-0.0976952
0.512285
1.20336
1.95432
2.73342
3.49393
4.16867
4.66709
4.88522
4.69597
3.80092
1.9835
-1.44915
-1.93527
-2.16776
-2.1909
-2.06862
-1.80973
-1.41919
-0.904592
-0.272845
0.469027
1.31124
2.2376
3.22052
4.21408
5.14493
5.90505
6.35929
6.32761
5.3966
3.25092
-2.30411
-2.82581
-3.0311
-2.98233
-2.7645
-2.39559
-1.88542
-1.24329
-0.474283
0.419667
1.4365
2.56948
3.80055
5.09065
6.36553
7.50173
8.3283
8.59282
7.70994
5.19458
-3.43253
-3.97538
-4.11533
-3.94796
-3.59024
-3.07362
-2.41406
-1.62199
-0.698593
0.362555
1.57167
2.93758
4.45987
6.11634
7.84283
9.50918
10.9098
11.7001
11.04
8.14555
-4.92566
-5.45365
-5.4594
-5.10043
-4.54068
-3.82908
-2.98777
-2.02611
-0.937877
0.296117
1.70405
3.31812
5.16656
7.25943
9.56257
11.9607
14.23
15.9245
15.8449
12.6801
-6.93911
-7.35949
-7.10206
-6.43697
-5.58981
-4.62682
-3.57226
-2.42893
-1.17765
0.219118
1.8138
3.6706
5.85989
8.44544
11.4555
14.8336
18.3869
21.6018
22.8311
19.8599
-9.74774
-9.829
-9.06904
-7.92328
-6.67694
-5.4014
-4.11028
-2.78846
-1.3953
0.131104
1.87302
3.93437
6.44153
9.5381
13.3623
17.9949
23.3842
29.0796
33.0375
31.6454
-13.8432
-13.033
-11.3517
-9.48106
-7.70132
-6.05647
-4.52394
-3.05028
-1.5618
0.0333125
1.8499
4.03547
6.78273
10.3421
15.0249
21.173
29.0675
38.605
47.8557
51.6175
-20.3383
-17.163
-13.7897
-10.8955
-8.46444
-6.43225
-4.69796
-3.14005
-1.63884
-0.071282
1.70565
3.87679
6.69879
10.5437
15.9595
23.7118
34.6935
49.7561
69.1693
87.9009
-32.1677
-22.2304
-15.5241
-11.3564
-8.36601
-6.11825
-4.36616
-2.8977
-1.54923
-0.181904
1.35147
3.24002
5.76068
9.35808
14.7934
23.332
36.8247
58.7359
98.7955
162.053
-51.2902
-26.9023
-14.914
-9.71314
-6.72468
-4.74026
-3.32747
-2.21721
-1.24321
-0.290468
0.748886
2.00963
3.69798
6.18305
10.2078
17.2553
30.1536
57.1174
129.509
290.853
)
;

boundaryField
{
    movingWall
    {
        type            zeroGradient;
    }
    fixedWalls
    {
        type            zeroGradient;
    }
    frontAndBack
    {
        type            empty;
    }
}


// ************************************************************************* //
