/*--------------------------------*- C++ -*----------------------------------*\
| =========                 |                                                 |
| \\      /  F ield         | OpenFOAM: The Open Source CFD Toolbox           |
|  \\    /   O peration     | Version:  v2006                                 |
|   \\  /    A nd           | Website:  www.openfoam.com                      |
|    \\/     M anipulation  |                                                 |
\*---------------------------------------------------------------------------*/
FoamFile
{
    version     2.0;
    format      ascii;
    class       surfaceScalarField;
    location    "0.1";
    object      nu;
}
// * * * * * * * * * * * * * * * * * * * * * * * * * * * * * * * * * * * * * //

dimensions      [0 2 -1 0 0 0 0];


internalField   nonuniform List<scalar> 
760
(
1.00515
1.00254
1.0106
1.00784
1.01635
1.01344
1.0224
1.01934
1.02875
1.02554
1.0354
1.03204
1.04235
1.03884
1.0496
1.04594
1.05715
1.05334
1.065
1.06104
1.07315
1.06903
1.0816
1.07733
1.09035
1.08593
1.0994
1.09483
1.10875
1.10403
1.1184
1.11353
1.12835
1.12333
1.1386
1.13343
1.14915
1.14383
1.15453
1.00515
1.00254
1.0106
1.00784
1.01635
1.01344
1.0224
1.01933
1.02875
1.02553
1.0354
1.03203
1.04235
1.03883
1.0496
1.04593
1.05714
1.05333
1.06499
1.06103
1.07314
1.06903
1.08159
1.07733
1.09034
1.08593
1.09939
1.09482
1.10874
1.10402
1.11839
1.11352
1.12834
1.12332
1.13859
1.13342
1.14914
1.14382
1.15452
1.00515
1.00254
1.0106
1.00783
1.01635
1.01343
1.02239
1.01933
1.02874
1.02553
1.03539
1.03203
1.04234
1.03882
1.04959
1.04592
1.05714
1.05332
1.06498
1.06102
1.07313
1.06901
1.08158
1.07731
1.09033
1.08591
1.09938
1.09481
1.10873
1.104
1.11838
1.1135
1.12832
1.1233
1.13857
1.1334
1.14912
1.1438
1.15449
1.00515
1.00254
1.01059
1.00783
1.01634
1.01343
1.02239
1.01932
1.02873
1.02552
1.03538
1.03202
1.04233
1.03881
1.04958
1.04591
1.05712
1.0533
1.06497
1.061
1.07312
1.069
1.08156
1.07729
1.09031
1.08589
1.09936
1.09478
1.1087
1.10398
1.11835
1.11348
1.1283
1.12327
1.13854
1.13337
1.14909
1.14376
1.15446
1.00514
1.00253
1.01059
1.00783
1.01633
1.01342
1.02238
1.01932
1.02872
1.02551
1.03537
1.032
1.04231
1.0388
1.04956
1.04589
1.0571
1.05328
1.06495
1.06098
1.07309
1.06897
1.08154
1.07727
1.09028
1.08586
1.09933
1.09475
1.10867
1.10395
1.11832
1.11344
1.12826
1.12323
1.13851
1.13333
1.14905
1.14372
1.15442
1.00514
1.00253
1.01058
1.00782
1.01633
1.01342
1.02237
1.01931
1.02871
1.0255
1.03535
1.03199
1.0423
1.03878
1.04954
1.04587
1.05708
1.05326
1.06492
1.06095
1.07307
1.06894
1.08151
1.07723
1.09025
1.08583
1.09929
1.09472
1.10864
1.10391
1.11828
1.1134
1.12822
1.12319
1.13846
1.13328
1.14901
1.14367
1.15436
1.00514
1.00253
1.01058
1.00782
1.01632
1.01341
1.02236
1.01929
1.0287
1.02548
1.03534
1.03197
1.04228
1.03876
1.04952
1.04585
1.05706
1.05323
1.06489
1.06092
1.07303
1.06891
1.08147
1.0772
1.09021
1.08578
1.09925
1.09467
1.10859
1.10386
1.11823
1.11335
1.12817
1.12314
1.13841
1.13322
1.14895
1.14361
1.1543
1.00514
1.00253
1.01057
1.00781
1.01631
1.0134
1.02234
1.01928
1.02868
1.02547
1.03532
1.03195
1.04225
1.03873
1.04949
1.04582
1.05702
1.0532
1.06486
1.06089
1.073
1.06887
1.08143
1.07715
1.09017
1.08574
1.0992
1.09462
1.10854
1.10381
1.11818
1.11329
1.12811
1.12307
1.13835
1.13316
1.14888
1.14354
1.15423
1.00513
1.00253
1.01056
1.00781
1.0163
1.01339
1.02233
1.01927
1.02866
1.02545
1.03529
1.03193
1.04222
1.03871
1.04946
1.04579
1.05699
1.05317
1.06482
1.06085
1.07295
1.06883
1.08138
1.07711
1.09012
1.08569
1.09915
1.09457
1.10848
1.10375
1.11811
1.11322
1.12804
1.123
1.13828
1.13308
1.14881
1.14346
1.15414
1.00513
1.00253
1.01056
1.0078
1.01628
1.01338
1.02231
1.01925
1.02864
1.02543
1.03527
1.0319
1.04219
1.03868
1.04942
1.04575
1.05695
1.05313
1.06478
1.0608
1.0729
1.06878
1.08133
1.07705
1.09006
1.08563
1.09909
1.0945
1.10841
1.10368
1.11804
1.11315
1.12797
1.12293
1.1382
1.133
1.14872
1.14338
1.15405
1.00512
1.00252
1.01055
1.00779
1.01627
1.01336
1.02229
1.01923
1.02861
1.0254
1.03524
1.03187
1.04216
1.03864
1.04938
1.04571
1.0569
1.05308
1.06473
1.06075
1.07285
1.06872
1.08127
1.07699
1.08999
1.08556
1.09902
1.09443
1.10834
1.1036
1.11796
1.11307
1.12788
1.12284
1.13811
1.13291
1.14863
1.14328
1.15395
1.00512
1.00252
1.01053
1.00778
1.01625
1.01335
1.02227
1.01921
1.02859
1.02538
1.0352
1.03184
1.04212
1.03861
1.04934
1.04567
1.05685
1.05303
1.06467
1.0607
1.07279
1.06866
1.08121
1.07693
1.08992
1.08549
1.09894
1.09435
1.10826
1.10352
1.11787
1.11298
1.12779
1.12275
1.13801
1.13281
1.14853
1.14318
1.15384
1.00511
1.00252
1.01052
1.00777
1.01623
1.01333
1.02224
1.01919
1.02856
1.02535
1.03517
1.03181
1.04208
1.03857
1.04929
1.04562
1.0568
1.05298
1.06461
1.06064
1.07272
1.0686
1.08113
1.07686
1.08985
1.08541
1.09886
1.09427
1.10817
1.10343
1.11778
1.11289
1.12769
1.12265
1.1379
1.1327
1.14841
1.14306
1.15372
1.0051
1.00251
1.01051
1.00776
1.01621
1.01332
1.02222
1.01917
1.02852
1.02532
1.03513
1.03177
1.04203
1.03852
1.04924
1.04557
1.05674
1.05293
1.06455
1.06058
1.07265
1.06853
1.08106
1.07678
1.08976
1.08533
1.09877
1.09418
1.10807
1.10333
1.11768
1.11279
1.12758
1.12254
1.13779
1.13259
1.14829
1.14294
1.15359
1.0051
1.00251
1.0105
1.00775
1.01619
1.0133
1.02219
1.01914
1.02849
1.02529
1.03509
1.03173
1.04199
1.03848
1.04918
1.04552
1.05668
1.05286
1.06448
1.06051
1.07258
1.06845
1.08098
1.0767
1.08967
1.08524
1.09867
1.09409
1.10797
1.10323
1.11757
1.11268
1.12747
1.12242
1.13766
1.13246
1.14816
1.14281
1.15345
1.00509
1.00251
1.01048
1.00774
1.01617
1.01328
1.02216
1.01912
1.02845
1.02525
1.03504
1.03169
1.04193
1.03843
1.04913
1.04546
1.05662
1.0528
1.06441
1.06044
1.0725
1.06837
1.08089
1.07661
1.08958
1.08515
1.09857
1.09398
1.10786
1.10312
1.11745
1.11256
1.12734
1.12229
1.13753
1.13233
1.14802
1.14267
1.15331
1.00508
1.0025
1.01047
1.00773
1.01615
1.01326
1.02213
1.01909
1.02841
1.02522
1.035
1.03165
1.04188
1.03837
1.04906
1.0454
1.05655
1.05273
1.06433
1.06036
1.07241
1.06829
1.08079
1.07652
1.08948
1.08505
1.09846
1.09388
1.10774
1.103
1.11733
1.11243
1.12721
1.12216
1.13739
1.13219
1.14787
1.14252
1.15315
1.00507
1.0025
1.01045
1.00772
1.01612
1.01324
1.0221
1.01906
1.02837
1.02518
1.03495
1.0316
1.04182
1.03832
1.049
1.04534
1.05647
1.05266
1.06425
1.06028
1.07232
1.0682
1.0807
1.07642
1.08937
1.08494
1.09834
1.09376
1.10762
1.10288
1.11719
1.1123
1.12707
1.12202
1.13724
1.13204
1.14772
1.14236
1.15298
1.00507
1.00249
1.01043
1.0077
1.0161
1.01322
1.02206
1.01903
1.02833
1.02514
1.0349
1.03155
1.04176
1.03826
1.04893
1.04527
1.05639
1.05258
1.06416
1.0602
1.07222
1.06811
1.08059
1.07632
1.08926
1.08483
1.09822
1.09364
1.10749
1.10275
1.11705
1.11216
1.12692
1.12187
1.13709
1.13189
1.14755
1.1422
1.15281
1.00506
1.01041
1.01607
1.02203
1.02828
1.03484
1.0417
1.04885
1.05631
1.06407
1.07212
1.08048
1.08914
1.09809
1.10735
1.11691
1.12676
1.13692
1.14738
)
;

boundaryField
{
    movingWall
    {
        type            calculated;
        value           nonuniform List<scalar> 
20
(
1.00249
1.00769
1.01319
1.01899
1.0251
1.0315
1.0382
1.0452
1.0525
1.06011
1.06801
1.07621
1.08471
1.09351
1.10262
1.11202
1.12172
1.13172
1.14202
1.15263
)
;
    }
    fixedWalls
    {
        type            calculated;
        value           nonuniform List<scalar> 
60
(
1
1
1
1
1
1
1
1
1
1
1
1
1
1
1
1
1
1
1
1
1.16
1.15999
1.15997
1.15994
1.1599
1.15985
1.15979
1.15972
1.15964
1.15955
1.15945
1.15934
1.15922
1.1591
1.15896
1.15881
1.15866
1.15849
1.15832
1.15813
1.00254
1.00784
1.01344
1.01934
1.02554
1.03204
1.03884
1.04594
1.05334
1.06104
1.06904
1.07734
1.08594
1.09484
1.10404
1.11354
1.12334
1.13344
1.14384
1.15454
)
;
    }
    frontAndBack
    {
        type            empty;
        value           nonuniform List<scalar> 0();
    }
}


// ************************************************************************* //
