/*--------------------------------*- C++ -*----------------------------------*\
| =========                 |                                                 |
| \\      /  F ield         | OpenFOAM: The Open Source CFD Toolbox           |
|  \\    /   O peration     | Version:  v2006                                 |
|   \\  /    A nd           | Website:  www.openfoam.com                      |
|    \\/     M anipulation  |                                                 |
\*---------------------------------------------------------------------------*/
FoamFile
{
    version     2.0;
    format      ascii;
    class       volScalarField;
    location    "0.1";
    object      p;
}
// * * * * * * * * * * * * * * * * * * * * * * * * * * * * * * * * * * * * * //

dimensions      [0 2 -2 0 0 0 0];


internalField   nonuniform List<scalar> 
400
(
0.35938
25580.1
43253.7
51213.5
53042.8
52056.7
44360.3
28680.8
4556
-32609.2
-80061.4
-132823
-197457
-281835
-384693
-501212
-624383
-732900
-788943
-763155
-5497.32
6321.3
17156.2
24954.4
28396.6
30569.7
28305.9
16561.1
-2794.58
-31259.4
-70820
-117015
-170809
-239801
-327696
-433351
-551231
-658298
-718197
-712942
5966.16
7709.51
14526.5
21264.5
25094.6
25298.9
22412.7
13059.7
-5293.26
-32099.4
-66278.4
-105375
-150728
-209171
-286533
-384543
-497965
-603806
-671744
-695894
12371.8
7997.93
10260.1
11623.5
11927.6
9722.09
4299.24
-5235.73
-21943.7
-46126.7
-75765.1
-109309
-149014
-201328
-272176
-363472
-469110
-568217
-638142
-682373
11247.6
1559.06
-1096.31
-5072.01
-11700.2
-17873.5
-24359
-33838
-49247.2
-70334.8
-95145.1
-123581
-159298
-208448
-275512
-360908
-457828
-548162
-616159
-668629
5066.44
-9098.36
-17595.1
-26888
-37839.5
-46391.9
-53437.2
-62621.9
-76494.8
-94304.7
-114903
-139910
-174012
-222374
-287325
-367725
-457885
-542143
-608464
-662091
-2609
-21017.8
-34939.9
-48576.5
-61247.5
-70191.2
-77239.5
-85799.7
-97694.6
-112710
-131306
-155988
-190996
-240003
-304000
-381129
-467209
-548922
-613888
-665588
-8987
-31071.4
-48815.2
-64857.4
-78012.8
-86563.5
-93387.4
-101782
-112697
-126510
-145507
-172578
-210494
-261000
-324470
-399819
-483911
-564435
-626981
-675892
-12642.2
-37121.9
-56515.2
-73408.4
-86833.2
-95343.9
-102422
-111494
-123013
-137695
-159217
-190559
-232600
-285129
-348223
-422274
-505050
-583581
-642692
-688795
-12199.6
-38333.2
-58271.4
-75340.5
-89159.4
-98095.8
-105635
-115604
-129028
-146887
-172974
-209817
-256614
-311667
-374889
-447576
-528135
-602944
-658222
-700896
-7533.18
-35333.3
-55736.9
-72379.6
-85946.8
-95150.5
-103152
-114112
-130556
-154008
-186800
-229905
-281418
-339190
-403198
-474568
-551539
-620962
-671559
-710188
305.481
-28790.4
-49055.6
-64153.4
-76075.5
-85058.2
-94151.5
-107172
-127741
-158249
-199152
-249000
-305089
-365701
-430976
-501114
-573749
-637065
-682010
-717808
10665
-17954.6
-36321.8
-48710.7
-57760
-65971.9
-77091.9
-93947.9
-119780
-157372
-206384
-263488
-325082
-389591
-456726
-525704
-594057
-651939
-692273
-726974
22660.2
-2299.04
-15806.9
-24393.2
-30157.7
-37032.2
-50338.6
-71992.9
-104020
-148652
-205585
-270855
-339947
-410306
-480276
-548742
-613888
-668123
-707307
-741684
32842.6
15884.9
11633.6
8795.81
6151.8
868.92
-13866.9
-39920.9
-78408.5
-130865
-196711
-271438
-349710
-427521
-501754
-571794
-636962
-690491
-730410
-766095
34263.1
30435.9
39893.6
45874.7
47507.5
44240.2
29143.7
-749.989
-46176.8
-107658
-183342
-267822
-355529
-441779
-522893
-598475
-668153
-724552
-763442
-799394
16954.8
30056.9
54205.5
72341.9
82737.9
83328.8
67889.7
33910.6
-18976.6
-89858.1
-174792
-268111
-364915
-460291
-550960
-636307
-712835
-771434
-806122
-834199
-29259.5
1227.92
38638.2
72086.7
95464.3
101022
83865.6
45092.9
-14166.4
-92297.9
-184592
-285814
-391030
-495543
-596265
-690912
-772653
-827277
-851324
-861772
-92152.3
-45216.3
3177.53
50267.4
81765.1
86472.4
66361.3
26463.2
-35723.4
-120280
-219533
-327373
-438951
-550806
-660767
-760201
-839760
-887036
-895638
-880201
-100081
-41332.3
8044.47
50348
71622.3
66720
43331.1
2046.71
-67299.4
-161305
-264294
-375614
-497675
-619039
-734148
-838396
-916593
-955998
-950283
-912044
)
;

boundaryField
{
    movingWall
    {
        type            zeroGradient;
    }
    fixedWalls
    {
        type            zeroGradient;
    }
    frontAndBack
    {
        type            empty;
    }
}


// ************************************************************************* //
