/*--------------------------------*- C++ -*----------------------------------*\
| =========                 |                                                 |
| \\      /  F ield         | OpenFOAM: The Open Source CFD Toolbox           |
|  \\    /   O peration     | Version:  v2006                                 |
|   \\  /    A nd           | Website:  www.openfoam.com                      |
|    \\/     M anipulation  |                                                 |
\*---------------------------------------------------------------------------*/
FoamFile
{
    version     2.0;
    format      ascii;
    class       surfaceScalarField;
    location    "0.1";
    object      phi;
}
// * * * * * * * * * * * * * * * * * * * * * * * * * * * * * * * * * * * * * //

dimensions      [0 3 -1 0 0 0 0];
oriented        oriented;


internalField   nonuniform List<scalar> 
760
(
0.00216551
-0.00216555
0.00648631
-0.00432079
0.0116794
-0.00519307
0.0168071
-0.00512766
0.021362
-0.00455491
0.0253835
-0.00402146
0.0288037
-0.00342019
0.0315071
-0.00270346
0.0336071
-0.00209993
0.0350825
-0.00147545
0.0358022
-0.000719722
0.0358089
-6.72931e-06
0.0351532
0.000655709
0.0336778
0.00147545
0.0310741
0.0026037
0.0270166
0.00405747
0.0212351
0.00578153
0.0136329
0.00760213
0.00494781
0.00868514
0.00494782
0.00186463
-0.00403016
0.0058724
-0.00832856
0.0111831
-0.0105037
0.0171106
-0.0110552
0.0229547
-0.010399
0.0282622
-0.00932896
0.032854
-0.00801196
0.0367077
-0.00655713
0.0396279
-0.00502013
0.0414392
-0.00328682
0.042197
-0.0014775
0.0419227
0.000267558
0.0405459
0.00203248
0.0380083
0.00401309
0.0342121
0.00639992
0.0290419
0.00922769
0.0224585
0.0123649
0.0144508
0.0156098
0.00560286
0.0175331
0.0105507
-0.000504434
-0.00352572
-0.000458879
-0.00837411
0.000457424
-0.01142
0.00217044
-0.0127682
0.00447929
-0.0127078
0.00700738
-0.011857
0.00951856
-0.0105231
0.011791
-0.00882956
0.0137091
-0.00693823
0.0152041
-0.00478183
0.0160361
-0.00230952
0.0160074
0.000296293
0.0151921
0.00284775
0.0137693
0.0054359
0.0118789
0.00829033
0.00965263
0.0114539
0.00715511
0.0148624
0.00444657
0.0183183
0.00166851
0.0203112
0.0122192
-0.00130266
-0.00222304
-0.00314909
-0.00652767
-0.00468169
-0.00988739
-0.00570481
-0.0117451
-0.00611198
-0.0123007
-0.00609986
-0.0118691
-0.00572525
-0.0108978
-0.00505685
-0.00949798
-0.00430687
-0.00768821
-0.00361408
-0.00547461
-0.0030675
-0.00285611
-0.00278542
1.41995e-05
-0.00281517
0.00287752
-0.0030579
0.00567864
-0.00326247
0.0084949
-0.0031992
0.0113906
-0.00273341
0.0143966
-0.00187518
0.0174601
-0.000735223
0.0191712
0.011484
-0.00118069
-0.00104234
-0.00324657
-0.0044618
-0.00546778
-0.00766619
-0.0075925
-0.00962035
-0.00937497
-0.0105182
-0.0107313
-0.0105129
-0.0117243
-0.00990471
-0.0123362
-0.0088861
-0.0125927
-0.00743167
-0.0125637
-0.00550361
-0.0122994
-0.00312043
-0.0118596
-0.000425557
-0.0112924
0.00231034
-0.0105688
0.00495501
-0.00952558
0.00745165
-0.00802929
0.00989433
-0.00603981
0.0124071
-0.00368894
0.0151092
-0.00127532
0.0167576
0.0102087
-0.000888839
-0.00015351
-0.00273854
-0.00261208
-0.00491227
-0.00549248
-0.00716905
-0.00736362
-0.00938692
-0.0083003
-0.011362
-0.00853781
-0.0130001
-0.00826657
-0.0142596
-0.00762663
-0.0151198
-0.00657152
-0.0155604
-0.00506302
-0.0155484
-0.00313235
-0.0150837
-0.000890253
-0.0142055
0.0014321
-0.0129291
0.00367858
-0.0112211
0.0057437
-0.00903429
0.0077075
-0.0064571
0.00982995
-0.00366957
0.0123217
-0.00118951
0.0142775
0.00901916
-0.000714981
0.000561453
-0.00229498
-0.00103212
-0.0042515
-0.00353597
-0.00636429
-0.00525083
-0.00849792
-0.00616669
-0.0105104
-0.00652531
-0.0122978
-0.00647917
-0.0137894
-0.0061351
-0.0149175
-0.00544344
-0.0156066
-0.00437388
-0.0157783
-0.00296066
-0.0153876
-0.00128093
-0.0144595
0.000504045
-0.0130238
0.00224286
-0.0111182
0.00383811
-0.00875562
0.0053449
-0.00607415
0.00714846
-0.00330787
0.00955543
-0.00104261
0.0120123
0.00797656
-0.000641401
0.00120285
-0.00208449
0.000410936
-0.0038535
-0.00176697
-0.00575998
-0.00334435
-0.00769272
-0.00423396
-0.00954983
-0.00466821
-0.0112482
-0.00478082
-0.0127237
-0.00465961
-0.0138892
-0.00427788
-0.0146468
-0.00361623
-0.0149135
-0.00269399
-0.014621
-0.00157344
-0.0137685
-0.000348449
-0.0123843
0.000858602
-0.0105204
0.00197424
-0.00824524
0.00306972
-0.00565622
0.00455944
-0.00306553
0.00696477
-0.000941363
0.00988809
0.0070352
-0.000615833
0.00181867
-0.00207351
0.00186858
-0.00380512
-3.53555e-05
-0.00562564
-0.00152383
-0.00743352
-0.00242609
-0.00914571
-0.00295602
-0.0106986
-0.00322793
-0.0120512
-0.00330706
-0.0131278
-0.0032012
-0.0138277
-0.00291638
-0.0140786
-0.00244306
-0.0138157
-0.00183632
-0.0130218
-0.00114243
-0.0117173
-0.000445855
-0.00994547
0.000202404
-0.00780213
0.000926369
-0.00537037
0.00212769
-0.00296561
0.00456001
-0.000910335
0.00783282
0.00612486
-0.000692618
0.00251128
-0.00233147
0.00350741
-0.00419487
0.00182805
-0.00607773
0.000359038
-0.0078806
-0.000623225
-0.00952419
-0.00131244
-0.0109568
-0.00179535
-0.0121551
-0.00210873
-0.0130763
-0.00228001
-0.0136404
-0.00235224
-0.0137855
-0.002298
-0.0134593
-0.0021625
-0.0126331
-0.00196856
-0.0113143
-0.00176473
-0.00955534
-0.00155653
-0.00745906
-0.0011699
-0.00516226
-0.000169113
-0.00288312
0.00228089
-0.000941889
0.00589159
0.00518298
-0.000882017
0.00339331
-0.00284654
0.00547194
-0.00500579
0.00398731
-0.00707912
0.00243237
-0.00897273
0.00127038
-0.0106134
0.000328244
-0.0119621
-0.000446682
-0.0130076
-0.00106326
-0.0137376
-0.00154996
-0.0141147
-0.00197514
-0.0140854
-0.00232731
-0.0136104
-0.00263745
-0.0126569
-0.00292207
-0.0112163
-0.00320532
-0.00935835
-0.0034145
-0.00719616
-0.00333207
-0.00493257
-0.00243271
-0.00271062
5.89605e-05
-0.000916146
0.0040971
0.00426682
-0.00113405
0.00452737
-0.00352444
0.00786232
-0.00609377
0.00655665
-0.00844879
0.00478738
-0.0104823
0.00330388
-0.0121409
0.00198688
-0.013403
0.000815421
-0.0142837
-0.000182622
-0.0147963
-0.00103733
-0.0149547
-0.00181679
-0.0147223
-0.00255971
-0.0140678
-0.00329188
-0.0129532
-0.0040367
-0.0113556
-0.00480289
-0.00934754
-0.00542257
-0.00706188
-0.00561771
-0.00471211
-0.00478249
-0.00251433
-0.00213881
-0.000764619
0.00234739
0.0035022
-0.00142006
0.00594745
-0.00426862
0.0107109
-0.00725957
0.00954762
-0.00990307
0.0074309
-0.0120498
0.00545057
-0.0136828
0.00361988
-0.0148099
0.00194253
-0.0154921
0.000499548
-0.0157869
-0.000742518
-0.015747
-0.00185669
-0.0153553
-0.00295137
-0.0145791
-0.00406812
-0.0133678
-0.00524796
-0.0116894
-0.00648137
-0.00959843
-0.00751349
-0.00723312
-0.00798302
-0.00477004
-0.00724556
-0.00252899
-0.00437986
-0.000686456
0.000504842
0.00281574
-0.00175511
0.00770257
-0.00500824
0.013964
-0.00828508
0.0128245
-0.0110737
0.0102195
-0.0131985
0.00757534
-0.0146921
0.00511346
-0.0156316
0.002882
-0.0161053
0.00097323
-0.0162176
-0.000630203
-0.0160468
-0.00202742
-0.0156067
-0.00339148
-0.0148613
-0.00481359
-0.0137346
-0.00637467
-0.0121744
-0.00804157
-0.0101917
-0.00949615
-0.00788267
-0.010292
-0.00541289
-0.00971535
-0.00297886
-0.00681389
-0.000903923
-0.00157009
0.00191184
-0.00210881
0.0098114
-0.0055568
0.017412
-0.00878686
0.0160545
-0.0113844
0.0128171
-0.0132319
0.00942279
-0.0143939
0.00627548
-0.0150487
0.00353686
-0.0153456
0.00127006
-0.0154164
-0.000559386
-0.0153021
-0.00214168
-0.0149966
-0.00369705
-0.0144634
-0.00534677
-0.0136321
-0.00720592
-0.0124423
-0.00923141
-0.0108483
-0.0110901
-0.00884253
-0.0122978
-0.00654304
-0.0120149
-0.00394007
-0.00941683
-0.00140051
-0.00410969
0.00051134
-0.00229301
0.0121044
-0.00535658
0.0204756
-0.00790323
0.0186011
-0.00972873
0.0146426
-0.0108284
0.0105225
-0.0114007
0.00684784
-0.0117136
0.00384974
-0.0119297
0.00148617
-0.0121229
-0.000366198
-0.0122752
-0.00198934
-0.0123325
-0.00363977
-0.0122442
-0.00543506
-0.0119579
-0.00749223
-0.0114174
-0.00977195
-0.010547
-0.0119605
-0.00924445
-0.0136003
-0.00737436
-0.013885
-0.00493508
-0.0118561
-0.00197577
-0.00706901
-0.00146444
-0.00173759
0.013842
-0.00306969
0.0218077
-0.00370526
0.0192367
-0.00377372
0.014711
-0.00350293
0.0102517
-0.00320228
0.00654719
-0.00311449
0.00376194
-0.00335904
0.00173072
-0.00385906
0.000133835
-0.00443982
-0.00140857
-0.00499361
-0.00308601
-0.0055275
-0.00490119
-0.0060545
-0.00696521
-0.00649886
-0.00932759
-0.00672335
-0.011736
-0.00667175
-0.0136519
-0.00604784
-0.0145089
-0.00455798
-0.0133459
-0.00203633
-0.00959064
-0.00350076
0.00104913
0.0127929
0.00418933
0.0186675
0.0075419
0.0158841
0.0105227
0.0117302
0.0127544
0.00802002
0.0140916
0.00520997
0.0145834
0.00327011
0.0144258
0.00188841
0.0139161
0.00064348
0.013201
-0.000693461
0.0121492
-0.00203415
0.0107361
-0.00348811
0.00914827
-0.00537742
0.00727646
-0.00745577
0.00503784
-0.00949741
0.00277257
-0.0113867
0.000738891
-0.0124752
-0.00057438
-0.0120327
-0.000684734
-0.00948031
-0.00418551
0.00670125
0.0060916
0.0167777
0.00859103
0.0255509
0.00711098
0.0319795
0.00530157
0.036164
0.00383553
0.0387735
0.00260055
0.0403586
0.00168499
0.0410914
0.00115559
0.0410242
0.000710695
0.0402994
3.12912e-05
0.0390048
-0.000739507
0.0369642
-0.00144749
0.0338931
-0.00230634
0.0297744
-0.00333715
0.0247262
-0.00444923
0.0188731
-0.00553359
0.0125508
-0.00615287
0.00663331
-0.00611518
0.00209852
-0.00494549
-0.00208698
0.0060916
0.0146826
0.0217936
0.0270952
0.0309307
0.0335312
0.0352163
0.0363718
0.0370825
0.0371138
0.0363743
0.0349268
0.0326205
0.0292834
0.0248341
0.0193006
0.0131477
0.00703248
0.00208698
)
;

boundaryField
{
    movingWall
    {
        type            calculated;
        value           uniform 0;
    }
    fixedWalls
    {
        type            calculated;
        value           uniform 0;
    }
    frontAndBack
    {
        type            empty;
        value           nonuniform List<scalar> 0();
    }
}


// ************************************************************************* //
