/*--------------------------------*- C++ -*----------------------------------*\
| =========                 |                                                 |
| \\      /  F ield         | OpenFOAM: The Open Source CFD Toolbox           |
|  \\    /   O peration     | Version:  v2006                                 |
|   \\  /    A nd           | Website:  www.openfoam.com                      |
|    \\/     M anipulation  |                                                 |
\*---------------------------------------------------------------------------*/
FoamFile
{
    version     2.0;
    format      ascii;
    class       volVectorField;
    location    "0.1";
    object      U;
}
// * * * * * * * * * * * * * * * * * * * * * * * * * * * * * * * * * * * * * //

dimensions      [0 1 -1 0 0 0 0];


internalField   nonuniform List<vector> 
400
(
(20.7503 -28.5236 0)
(80.3989 -54.4203 0)
(179.92 -64.2562 0)
(285.475 -62.5651 0)
(385.18 -55.433 0)
(471.179 -47.0305 0)
(544.752 -38.5559 0)
(607.591 -31.3087 0)
(654.846 -24.6135 0)
(688.097 -15.6621 0)
(712.842 -6.42676 0)
(722.271 0.156368 0)
(713.664 6.69294 0)
(691.815 16.8829 0)
(653.044 31.1533 0)
(586.721 48.4631 0)
(484.444 67.826 0)
(348.352 87.1583 0)
(184.353 101.535 0)
(58.5758 64.1808 0)
(11.9185 -68.8229 0)
(69.1496 -140.716 0)
(167.002 -170.753 0)
(281.123 -169.198 0)
(401.415 -151.729 0)
(518.69 -134.009 0)
(614.814 -112.055 0)
(698.193 -87.7452 0)
(770.972 -65.7367 0)
(815.275 -41.432 0)
(839.643 -15.2958 0)
(848.768 9.32652 0)
(832.476 35.5756 0)
(791.401 67.817 0)
(728.192 107.731 0)
(637.101 154.948 0)
(511.712 206.999 0)
(366.658 260.861 0)
(201.794 290.005 0)
(60.1372 166.15 0)
(-10.309 -81.4148 0)
(-12.1455 -178.965 0)
(-3.02543 -233.936 0)
(23.0583 -255.546 0)
(64.1924 -245.235 0)
(114.646 -223.106 0)
(167.668 -194.969 0)
(214.56 -160.561 0)
(256.72 -123.8 0)
(290.975 -83.5644 0)
(315.725 -38.3498 0)
(326.474 7.99402 0)
(317.721 52.5152 0)
(293.225 99.2089 0)
(258.432 154.485 0)
(213.687 219.047 0)
(159.565 290.129 0)
(109.975 362.884 0)
(64.8608 405.093 0)
(15.3336 243.078 0)
(-16.6214 -58.3835 0)
(-41.7699 -152.515 0)
(-79.5379 -219.505 0)
(-107.632 -254.507 0)
(-119.674 -262.717 0)
(-124.383 -250.142 0)
(-119.085 -226.966 0)
(-108.114 -195.301 0)
(-94.0092 -155.803 0)
(-79.4841 -109.48 0)
(-66.007 -56.4483 0)
(-55.4044 0.819987 0)
(-52.3328 57.732 0)
(-56.956 113.763 0)
(-64.3662 171.974 0)
(-69.6544 233.935 0)
(-69.9836 300.569 0)
(-51.7985 367.997 0)
(-21.1657 406.685 0)
(-13.3394 244.073 0)
(-16.0486 -31.7699 0)
(-40.3546 -110.146 0)
(-84.3456 -177.19 0)
(-133.552 -216.481 0)
(-172.044 -234.152 0)
(-202.487 -231.34 0)
(-225.152 -215.033 0)
(-242.078 -190.667 0)
(-251.54 -158.078 0)
(-253.341 -115.64 0)
(-249.28 -63.357 0)
(-240.594 -5.05602 0)
(-230.289 53.0096 0)
(-218.916 108.724 0)
(-203.685 162.604 0)
(-181.243 216.568 0)
(-150.048 271.827 0)
(-100.19 329.579 0)
(-43.544 361.618 0)
(-21.6739 218.495 0)
(-14.0407 -11.6985 0)
(-32.073 -70.1578 0)
(-73.4735 -132.106 0)
(-122.489 -171.549 0)
(-166.745 -189.769 0)
(-208.182 -192.591 0)
(-244.1 -184.581 0)
(-274.391 -168.235 0)
(-296.457 -142.745 0)
(-309.026 -107.643 0)
(-312.454 -63.6403 0)
(-306.788 -13.3089 0)
(-293.634 38.1589 0)
(-273.327 87.7022 0)
(-244.559 133.414 0)
(-207.551 177.635 0)
(-162.572 223.304 0)
(-102.314 274.106 0)
(-41.5239 308.042 0)
(-22.3056 191.073 0)
(-14.335 4.16657 0)
(-26.2083 -36.2641 0)
(-62.9922 -90.2536 0)
(-107.48 -126.231 0)
(-148.765 -144.625 0)
(-190.028 -150.561 0)
(-228.333 -147.512 0)
(-262.497 -137.78 0)
(-289.217 -120.207 0)
(-307.223 -94.3154 0)
(-315.592 -60.9829 0)
(-313.109 -21.861 0)
(-300.331 19.2623 0)
(-277.551 59.2489 0)
(-244.524 95.7282 0)
(-202.612 129.933 0)
(-155.058 168.841 0)
(-94.7075 216.521 0)
(-35.6275 260.082 0)
(-21.1822 168.295 0)
(-15.1181 17.5803 0)
(-24.2234 -6.34591 0)
(-57.5191 -52.8533 0)
(-97.3365 -85.2257 0)
(-134.094 -102.836 0)
(-171.856 -110.553 0)
(-208.148 -111.33 0)
(-241.218 -107.073 0)
(-267.514 -96.6358 0)
(-286.722 -79.4692 0)
(-297.486 -56.4447 0)
(-297.486 -28.8686 0)
(-286.401 0.952726 0)
(-264.185 30.3297 0)
(-231.861 57.5055 0)
(-190.772 83.0082 0)
(-145.923 115.462 0)
(-88.2484 162.885 0)
(-31.9149 217.651 0)
(-19.4381 148.948 0)
(-15.664 29.8468 0)
(-24.3094 22.2645 0)
(-57.0235 -17.6846 0)
(-95.7605 -47.869 0)
(-130.129 -65.6397 0)
(-165.087 -75.2307 0)
(-198.676 -79.1274 0)
(-229.005 -78.9141 0)
(-252.625 -74.2516 0)
(-270.338 -64.8149 0)
(-281.057 -51.0004 0)
(-281.622 -34.1335 0)
(-271.18 -15.293 0)
(-249.696 3.60206 0)
(-218.825 21.2552 0)
(-180.299 39.2673 0)
(-139.039 65.5312 0)
(-84.1159 113.824 0)
(-30.9134 176.345 0)
(-18.3267 130.99 0)
(-16.8064 42.836 0)
(-27.7485 52.8662 0)
(-63.4429 17.2879 0)
(-104.569 -12.028 0)
(-139.518 -30.8229 0)
(-173.579 -42.8103 0)
(-205.083 -49.9149 0)
(-232.584 -53.3678 0)
(-253.053 -53.907 0)
(-267.784 -51.8856 0)
(-276.392 -46.7087 0)
(-275.54 -39.5769 0)
(-263.854 -31.0443 0)
(-241.562 -22.2475 0)
(-210.313 -13.8758 0)
(-172.841 -2.8608 0)
(-133.133 18.6731 0)
(-80.923 67.7174 0)
(-30.5227 135.872 0)
(-18.7194 113.138 0)
(-18.9762 58.1393 0)
(-34.7285 87.8438 0)
(-76.8704 55.9229 0)
(-122.922 26.1618 0)
(-161.012 5.21206 0)
(-195.969 -10.5644 0)
(-226.062 -22.3919 0)
(-250.927 -30.8904 0)
(-268.495 -37.2072 0)
(-279.666 -42.6784 0)
(-284.395 -46.1103 0)
(-280.172 -47.9791 0)
(-265.52 -48.804 0)
(-240.799 -49.4791 0)
(-207.248 -49.6142 0)
(-168.111 -45.1321 0)
(-127.072 -26.2777 0)
(-76.408 23.2047 0)
(-28.1785 99.4129 0)
(-18.6324 94.6744 0)
(-21.5596 77.9186 0)
(-43.7602 130.57 0)
(-94.9326 102.396 0)
(-147.574 69.9383 0)
(-190.218 44.5165 0)
(-227.219 22.5765 0)
(-256.126 3.59724 0)
(-277.848 -12.1369 0)
(-292.114 -25.2665 0)
(-299.51 -37.6429 0)
(-299.569 -49.1114 0)
(-290.93 -59.613 0)
(-272.799 -69.5412 0)
(-245.27 -79.651 0)
(-208.865 -87.8122 0)
(-166.388 -88.9963 0)
(-122.669 -71.4234 0)
(-70.7574 -20.467 0)
(-24.6878 65.945 0)
(-16.3805 77.3896 0)
(-24.0105 103.619 0)
(-53.3932 183.597 0)
(-114.687 158.805 0)
(-174.053 120.541 0)
(-220.529 87.1256 0)
(-259.192 56.3791 0)
(-286.43 28.0374 0)
(-304.054 3.37035 0)
(-314.015 -17.7992 0)
(-317.712 -36.6338 0)
(-314.163 -54.979 0)
(-302.174 -73.5195 0)
(-281.917 -92.7605 0)
(-252.976 -112.781 0)
(-215.054 -129.187 0)
(-170.278 -135.486 0)
(-124.518 -119.085 0)
(-70.1316 -63.6867 0)
(-24.4346 30.6575 0)
(-14.9543 64.4268 0)
(-26.5908 135.999 0)
(-63.1333 246.258 0)
(-133.138 223.627 0)
(-196.955 176.697 0)
(-243.583 131.25 0)
(-281.139 88.9563 0)
(-305.418 49.6497 0)
(-318.671 15.7847 0)
(-324.259 -13.1183 0)
(-324.678 -38.3547 0)
(-319.565 -63.1015 0)
(-307.36 -89.0118 0)
(-288.579 -117.145 0)
(-261.755 -146.661 0)
(-225.85 -171.281 0)
(-182.832 -182.957 0)
(-136.678 -168.669 0)
(-82.0669 -108.822 0)
(-31.4177 -8.66197 0)
(-16.9828 50.0022 0)
(-29.4633 175.568 0)
(-71.1989 316.121 0)
(-144.076 293.115 0)
(-206.64 235.138 0)
(-247.005 173.994 0)
(-278.155 117.696 0)
(-296.516 67.5432 0)
(-304.814 24.9475 0)
(-308.15 -10.1744 0)
(-308.906 -40.5955 0)
(-305.87 -70.4652 0)
(-297.126 -102.032 0)
(-283.73 -137.175 0)
(-263.333 -174.692 0)
(-234.69 -207.584 0)
(-199.606 -226.696 0)
(-157.834 -217.234 0)
(-104.919 -160.696 0)
(-47.4948 -53.1252 0)
(-21.6488 26.1199 0)
(-31.1308 221.857 0)
(-70.7161 387.361 0)
(-133.177 358.167 0)
(-182.423 286.433 0)
(-206.399 209.724 0)
(-222.56 139.228 0)
(-231.732 80.4286 0)
(-236.434 32.789 0)
(-240.511 -5.28944 0)
(-245.563 -38.6946 0)
(-248.668 -71.9738 0)
(-247.899 -107.138 0)
(-244.578 -146.739 0)
(-235.833 -190.449 0)
(-221.065 -231.907 0)
(-200.996 -260.995 0)
(-172.856 -260.37 0)
(-124.386 -215.354 0)
(-64.9712 -111.415 0)
(-28.007 -8.8593 0)
(-26.1726 267.395 0)
(-43.6411 440.044 0)
(-68.5988 395.699 0)
(-78.5743 309.146 0)
(-71.1458 221.155 0)
(-65.2406 145.047 0)
(-61.4056 84.6913 0)
(-63.0303 37.988 0)
(-71.9528 0.939391 0)
(-84.8069 -32.1427 0)
(-96.158 -65.7038 0)
(-106.464 -102.425 0)
(-117.479 -145.373 0)
(-126.566 -193.298 0)
(-133.716 -240.674 0)
(-137.157 -279.861 0)
(-134.736 -294.109 0)
(-110.389 -261.014 0)
(-62.3611 -175.237 0)
(-27.6269 -53.4987 0)
(-1.52532 280.196 0)
(54.3853 425.56 0)
(119.925 367.623 0)
(185.494 276.142 0)
(240.107 191.306 0)
(272.966 123.41 0)
(289.947 72.2289 0)
(292.627 35.0251 0)
(283.361 6.77529 0)
(270.431 -21.076 0)
(254.488 -53.7672 0)
(228.579 -89.8848 0)
(198.142 -130.314 0)
(166.027 -177.939 0)
(123.755 -227.659 0)
(73.9531 -267.388 0)
(29.1068 -290.613 0)
(-1.32617 -275.606 0)
(-12.2221 -210.254 0)
(-12.2561 -87.3597 0)
(55.2546 195.815 0)
(235.254 279.058 0)
(437.576 230.639 0)
(593.224 166.438 0)
(692.731 111.232 0)
(752.54 68.6185 0)
(795.276 41.7627 0)
(820.478 26.1648 0)
(823.132 9.26349 0)
(813.223 -14.0275 0)
(795.118 -36.5606 0)
(762.224 -59.6091 0)
(714.336 -91.1212 0)
(640.144 -124.319 0)
(545.953 -158.089 0)
(437.899 -191.334 0)
(310.22 -207.05 0)
(188.447 -202.795 0)
(85.0743 -162.833 0)
(18.6834 -70.3001 0)
(64.6172 71.9273 0)
(208.068 97.6373 0)
(378.09 81.0024 0)
(500.488 59.045 0)
(585.775 39.3868 0)
(647.654 22.6737 0)
(693.254 11.2263 0)
(720.194 4.93432 0)
(732.971 -1.7667 0)
(742.862 -11.7292 0)
(741.356 -19.6855 0)
(714.705 -24.5451 0)
(677.062 -34.3791 0)
(625.22 -47.723 0)
(544.049 -58.132 0)
(442.535 -70.1132 0)
(323.915 -78.6704 0)
(199.353 -77.3077 0)
(87.6329 -64.5215 0)
(23.8677 -30.4741 0)
)
;

boundaryField
{
    movingWall
    {
        type            fixedValue;
        value           uniform (1 0 0);
    }
    fixedWalls
    {
        type            noSlip;
    }
    frontAndBack
    {
        type            empty;
    }
}


// ************************************************************************* //
