/*--------------------------------*- C++ -*----------------------------------*\
| =========                 |                                                 |
| \\      /  F ield         | OpenFOAM: The Open Source CFD Toolbox           |
|  \\    /   O peration     | Version:  v2006                                 |
|   \\  /    A nd           | Website:  www.openfoam.com                      |
|    \\/     M anipulation  |                                                 |
\*---------------------------------------------------------------------------*/
FoamFile
{
    version     2.0;
    format      ascii;
    class       volScalarField;
    location    "4";
    object      p;
}
// * * * * * * * * * * * * * * * * * * * * * * * * * * * * * * * * * * * * * //

dimensions      [0 2 -2 0 0 0 0];


internalField   nonuniform List<scalar> 
400
(
9.50565e-07
-0.0884257
-0.200118
-0.290086
-0.324872
-0.280383
-0.141889
0.095551
0.42666
0.835631
1.29626
1.77284
2.2221
2.5966
2.85015
2.94569
2.86656
2.63106
2.31005
2.0423
0.0847333
-0.0055914
-0.0922635
-0.153025
-0.169813
-0.124868
-0.00640102
0.189735
0.459559
0.79059
1.16198
1.54539
1.90685
2.20971
2.41896
2.50722
2.46292
2.29788
2.04381
1.7666
0.190469
0.0665613
-0.0265188
-0.0820689
-0.095251
-0.0532643
0.0530135
0.226403
0.463109
0.75228
1.07601
1.41006
1.7254
1.99064
2.17527
2.2542
2.21449
2.0582
1.77943
1.39178
0.27717
0.107541
-0.00752709
-0.0709796
-0.0880902
-0.0494566
0.0519709
0.217587
0.443148
0.718276
1.02629
1.34466
1.64618
1.90077
2.07791
2.15012
2.09943
1.91759
1.56662
1.02571
0.318077
0.101214
-0.0397736
-0.114483
-0.136224
-0.0979574
0.00579141
0.175099
0.405046
0.685198
0.999231
1.3251
1.63576
1.90034
2.08587
2.16002
2.09795
1.88093
1.44217
0.735218
0.293616
0.0301054
-0.137133
-0.222574
-0.246184
-0.20257
-0.08744
0.0981065
0.348392
0.652636
0.994354
1.35117
1.69503
1.99275
2.20694
2.29834
2.23331
1.98164
1.44822
0.564969
0.187122
-0.122406
-0.314344
-0.407203
-0.427027
-0.369731
-0.232016
-0.0160721
0.271679
0.620042
1.01219
1.42504
1.82884
2.18699
2.45604
2.58753
2.53658
2.25886
1.62767
0.552828
-0.0183415
-0.373471
-0.586869
-0.681061
-0.688431
-0.606341
-0.43257
-0.170404
0.17309
0.586505
1.05291
1.54869
2.04234
2.49328
2.85066
3.05445
3.04503
2.75925
2.03068
0.741742
-0.342342
-0.742647
-0.972282
-1.05854
-1.04133
-0.92016
-0.694282
-0.368201
0.0505827
0.550977
1.11672
1.72451
2.34183
2.92432
3.41292
3.73348
3.80703
3.54406
2.72392
1.19016
-0.80899
-1.25347
-1.49114
-1.55588
-1.49752
-1.31907
-1.02206
-0.612429
-0.0977087
0.512272
1.20334
1.9543
2.7334
3.49391
4.16865
4.66708
4.8852
4.69596
3.8009
1.98348
-1.44917
-1.93529
-2.16778
-2.19092
-2.06863
-1.80975
-1.41921
-0.90461
-0.27286
0.469014
1.31122
2.23759
3.22051
4.21406
5.14491
5.90503
6.35928
6.3276
5.39658
3.2509
-2.30413
-2.82583
-3.03112
-2.98234
-2.76452
-2.39561
-1.88544
-1.24331
-0.474301
0.419652
1.43648
2.56946
3.80054
5.09063
6.36551
7.50171
8.32828
8.59281
7.70993
5.19456
-3.43255
-3.9754
-4.11535
-3.94797
-3.59026
-3.07363
-2.41407
-1.62201
-0.698613
0.362536
1.57165
2.93756
4.45986
6.11632
7.84281
9.50916
10.9098
11.7001
11.04
8.14554
-4.92568
-5.45367
-5.45942
-5.10044
-4.54069
-3.8291
-2.98779
-2.02612
-0.937896
0.296098
1.70404
3.31811
5.16655
7.25942
9.56255
11.9607
14.2299
15.9245
15.8449
12.6801
-6.93912
-7.35951
-7.10208
-6.43699
-5.58982
-4.62684
-3.57227
-2.42895
-1.17766
0.219099
1.81378
3.67058
5.85987
8.44542
11.4555
14.8335
18.3869
21.6018
22.831
19.8599
-9.74775
-9.82902
-9.06905
-7.9233
-6.67696
-5.40142
-4.1103
-2.78847
-1.39532
0.131088
1.873
3.93435
6.44151
9.53808
13.3623
17.9949
23.3842
29.0795
33.0375
31.6454
-13.8432
-13.033
-11.3517
-9.48108
-7.70134
-6.05649
-4.52396
-3.0503
-1.56181
0.0332974
1.84989
4.03545
6.78271
10.3421
15.0249
21.173
29.0675
38.6049
47.8557
51.6174
-20.3384
-17.1631
-13.7897
-10.8956
-8.46446
-6.43227
-4.69798
-3.14007
-1.63885
-0.0712968
1.70563
3.87677
6.69878
10.5436
15.9595
23.7118
34.6935
49.7561
69.1692
87.9008
-32.1677
-22.2304
-15.5241
-11.3564
-8.36603
-6.11827
-4.36618
-2.89771
-1.54925
-0.18192
1.35146
3.24
5.76066
9.35806
14.7934
23.332
36.8247
58.7359
98.7954
162.053
-51.2902
-26.9023
-14.914
-9.71316
-6.7247
-4.74028
-3.32748
-2.21723
-1.24323
-0.290485
0.74887
2.00962
3.69796
6.18303
10.2078
17.2553
30.1536
57.1174
129.509
290.853
)
;

boundaryField
{
    movingWall
    {
        type            zeroGradient;
    }
    fixedWalls
    {
        type            zeroGradient;
    }
    frontAndBack
    {
        type            empty;
    }
}


// ************************************************************************* //
