/*--------------------------------*- C++ -*----------------------------------*\
| =========                 |                                                 |
| \\      /  F ield         | OpenFOAM: The Open Source CFD Toolbox           |
|  \\    /   O peration     | Version:  v2006                                 |
|   \\  /    A nd           | Website:  www.openfoam.com                      |
|    \\/     M anipulation  |                                                 |
\*---------------------------------------------------------------------------*/
FoamFile
{
    version     2.0;
    format      ascii;
    class       volVectorField;
    location    "10";
    object      U;
}
// * * * * * * * * * * * * * * * * * * * * * * * * * * * * * * * * * * * * * //

dimensions      [0 1 -1 0 0 0 0];


internalField   nonuniform List<vector> 
400
(
(0.000356716 -0.000339062 0)
(0.000135152 0.000188892 0)
(-0.00168983 0.000761601 0)
(-0.00459661 0.00108958 0)
(-0.00793347 0.00117628 0)
(-0.011155 0.00107745 0)
(-0.0138616 0.000853388 0)
(-0.0157981 0.000557241 0)
(-0.0168348 0.000231521 0)
(-0.0169427 -9.10344e-05 0)
(-0.0161719 -0.00038519 0)
(-0.0146348 -0.000630982 0)
(-0.0124943 -0.000812002 0)
(-0.0099538 -0.00091439 0)
(-0.00724909 -0.000926681 0)
(-0.00463802 -0.000840932 0)
(-0.00238486 -0.000655709 0)
(-0.000735926 -0.000381114 0)
(0.000120301 -5.66405e-05 0)
(0.000159296 0.000162577 0)
(-0.000155956 -0.000163771 0)
(-0.00241139 0.00234316 0)
(-0.00788181 0.00469866 0)
(-0.015305 0.00601222 0)
(-0.0233719 0.00625526 0)
(-0.0309819 0.00563074 0)
(-0.0372868 0.00439729 0)
(-0.0417267 0.00280313 0)
(-0.0440128 0.00105944 0)
(-0.0440844 -0.000663492 0)
(-0.0420654 -0.00223056 0)
(-0.0382275 -0.00353419 0)
(-0.0329608 -0.00448811 0)
(-0.0267478 -0.00502433 0)
(-0.0201385 -0.00509432 0)
(-0.013719 -0.004676 0)
(-0.00806511 -0.00378769 0)
(-0.00367879 -0.00250894 0)
(-0.000945839 -0.00103153 0)
(-2.47025e-05 0.000139048 0)
(-0.000833357 0.00172868 0)
(-0.0053992 0.00794384 0)
(-0.0144926 0.0130693 0)
(-0.0259335 0.015769 0)
(-0.0378897 0.0160073 0)
(-0.048926 0.0142184 0)
(-0.0579369 0.0109866 0)
(-0.0641938 0.00689285 0)
(-0.067328 0.0024456 0)
(-0.067277 -0.00193633 0)
(-0.0642274 -0.00591623 0)
(-0.0585666 -0.00922507 0)
(-0.0508423 -0.0116492 0)
(-0.0417278 -0.0130253 0)
(-0.0319861 -0.0132457 0)
(-0.0224268 -0.0122755 0)
(-0.0138392 -0.0101837 0)
(-0.00691233 -0.00718252 0)
(-0.00224257 -0.00369876 0)
(-0.000280896 -0.000593768 0)
(-0.00142207 0.00523604 0)
(-0.00817316 0.0167282 0)
(-0.0207759 0.0252486 0)
(-0.0360146 0.0293855 0)
(-0.0515127 0.0292756 0)
(-0.0655595 0.0257057 0)
(-0.076877 0.0196839 0)
(-0.0846443 0.0122071 0)
(-0.0884657 0.00415095 0)
(-0.0882996 -0.0037599 0)
(-0.0843893 -0.0109406 0)
(-0.0772071 -0.0169227 0)
(-0.0674098 -0.0213344 0)
(-0.0558015 -0.023893 0)
(-0.0432973 -0.0244142 0)
(-0.0308789 -0.0228418 0)
(-0.01952 -0.0192947 0)
(-0.0101023 -0.014122 0)
(-0.00348801 -0.00797746 0)
(-0.000508709 -0.00201073 0)
(-0.00192737 0.0101642 0)
(-0.0107159 0.0284704 0)
(-0.0267091 0.040969 0)
(-0.0456257 0.0465105 0)
(-0.0645103 0.0456449 0)
(-0.0813827 0.0396749 0)
(-0.0948288 0.0301412 0)
(-0.103979 0.0185274 0)
(-0.108444 0.00612133 0)
(-0.108218 -0.00601754 0)
(-0.103597 -0.0170367 0)
(-0.0951111 -0.0262523 0)
(-0.0834886 -0.0331177 0)
(-0.0696195 -0.0372108 0)
(-0.0545311 -0.0382476 0)
(-0.0393512 -0.0361234 0)
(-0.0252367 -0.0309774 0)
(-0.0132911 -0.0232626 0)
(-0.00469673 -0.0138231 0)
(-0.00071434 -0.00405593 0)
(-0.00239024 0.0163914 0)
(-0.0131336 0.0430631 0)
(-0.0324477 0.0601735 0)
(-0.0549779 0.0670984 0)
(-0.0771651 0.0650543 0)
(-0.0967595 0.056054 0)
(-0.112235 0.0422993 0)
(-0.122707 0.0258353 0)
(-0.127821 0.00839823 0)
(-0.127619 -0.00860477 0)
(-0.12244 -0.024051 0)
(-0.112851 -0.0370392 0)
(-0.0996109 -0.0468389 0)
(-0.0836549 -0.0528677 0)
(-0.0660858 -0.0547071 0)
(-0.0481583 -0.0521562 0)
(-0.0312186 -0.0453183 0)
(-0.0166272 -0.0346956 0)
(-0.00594585 -0.0212802 0)
(-0.000919586 -0.00671663 0)
(-0.00284935 0.0238737 0)
(-0.0155413 0.0604651 0)
(-0.0381628 0.0828324 0)
(-0.0642589 0.0911062 0)
(-0.0896522 0.0874371 0)
(-0.111839 0.0747657 0)
(-0.12922 0.0560993 0)
(-0.140938 0.0341202 0)
(-0.146705 0.0110387 0)
(-0.146626 -0.0113951 0)
(-0.141073 -0.0318044 0)
(-0.13062 -0.0490839 0)
(-0.116014 -0.0623187 0)
(-0.0981819 -0.0707449 0)
(-0.078257 -0.0737626 0)
(-0.0575907 -0.0710052 0)
(-0.0377179 -0.0624555 0)
(-0.0202914 -0.0485813 0)
(-0.0073272 -0.0304699 0)
(-0.0011475 -0.0100315 0)
(-0.00333691 0.032634 0)
(-0.0180352 0.0806998 0)
(-0.0439806 0.108924 0)
(-0.0735545 0.118444 0)
(-0.101958 0.112645 0)
(-0.126483 0.0956435 0)
(-0.145526 0.0714071 0)
(-0.158324 0.0433256 0)
(-0.164704 0.0140904 0)
(-0.164851 -0.0142335 0)
(-0.159164 -0.0400557 0)
(-0.148184 -0.0621003 0)
(-0.132587 -0.0792807 0)
(-0.113225 -0.0906328 0)
(-0.0911886 -0.0953193 0)
(-0.0678712 -0.092713 0)
(-0.0449754 -0.0825548 0)
(-0.0244757 -0.0651529 0)
(-0.00894077 -0.0416021 0)
(-0.00142233 -0.0140924 0)
(-0.00388084 0.042747 0)
(-0.0206884 0.103833 0)
(-0.0499584 0.138398 0)
(-0.0828022 0.148914 0)
(-0.113818 0.140372 0)
(-0.140191 0.118351 0)
(-0.160433 0.0879439 0)
(-0.173981 0.0532997 0)
(-0.180844 0.0175687 0)
(-0.181318 -0.0169313 0)
(-0.175813 -0.0484685 0)
(-0.164792 -0.0756579 0)
(-0.14879 -0.097275 0)
(-0.128481 -0.112147 0)
(-0.104808 -0.119136 0)
(-0.0791114 -0.117235 0)
(-0.0532008 -0.105774 0)
(-0.0293819 -0.0847076 0)
(-0.0109008 -0.0549836 0)
(-0.00177293 -0.0190488 0)
(-0.00451249 0.0543291 0)
(-0.0235645 0.129935 0)
(-0.0560823 0.1711 0)
(-0.0917578 0.182101 0)
(-0.124648 0.170031 0)
(-0.152008 0.142269 0)
(-0.172658 0.105194 0)
(-0.186378 0.0637325 0)
(-0.193456 0.0214266 0)
(-0.194331 -0.0192616 0)
(-0.189417 -0.0565735 0)
(-0.179046 -0.0891128 0)
(-0.163513 -0.115581 0)
(-0.143193 -0.134608 0)
(-0.118728 -0.144702 0)
(-0.0912502 -0.144333 0)
(-0.0625511 -0.132186 0)
(-0.0352302 -0.107577 0)
(-0.0133528 -0.0710236 0)
(-0.00223997 -0.0251202 0)
(-0.00528099 0.0675441 0)
(-0.0267447 0.159048 0)
(-0.0622738 0.20667 0)
(-0.0999568 0.217236 0)
(-0.133462 0.200604 0)
(-0.160416 0.166359 0)
(-0.18022 0.122297 0)
(-0.1932 0.074085 0)
(-0.200029 0.0255174 0)
(-0.201334 -0.0209653 0)
(-0.197515 -0.0637409 0)
(-0.188715 -0.101543 0)
(-0.17489 -0.133104 0)
(-0.155966 -0.15691 0)
(-0.132089 -0.171079 0)
(-0.103947 -0.173414 0)
(-0.0730874 -0.161664 0)
(-0.0422699 -0.134071 0)
(-0.016503 -0.0902439 0)
(-0.00288929 -0.0326235 0)
(-0.00627891 0.0826369 0)
(-0.0303709 0.191145 0)
(-0.0683877 0.244406 0)
(-0.106637 0.252988 0)
(-0.138739 0.230445 0)
(-0.163166 0.189002 0)
(-0.180284 0.137942 0)
(-0.191198 0.083517 0)
(-0.197074 0.029551 0)
(-0.198752 -0.0217709 0)
(-0.196601 -0.0691741 0)
(-0.190523 -0.111707 0)
(-0.180046 -0.148286 0)
(-0.164497 -0.177364 0)
(-0.143298 -0.1967 0)
(-0.116379 -0.20331 0)
(-0.084671 -0.193679 0)
(-0.0507745 -0.164375 0)
(-0.020663 -0.113289 0)
(-0.00383637 -0.042029 0)
(-0.00768746 0.100015 0)
(-0.0347026 0.226071 0)
(-0.0741633 0.283031 0)
(-0.110566 0.287191 0)
(-0.138176 0.257038 0)
(-0.157042 0.207843 0)
(-0.168964 0.150266 0)
(-0.17604 0.090832 0)
(-0.179994 0.0330533 0)
(-0.181868 -0.0214334 0)
(-0.181967 -0.0719438 0)
(-0.17992 -0.118052 0)
(-0.174782 -0.159061 0)
(-0.165185 -0.193575 0)
(-0.149614 -0.219134 0)
(-0.126872 -0.231963 0)
(-0.0967199 -0.226985 0)
(-0.060977 -0.198338 0)
(-0.0263095 -0.140917 0)
(-0.00529056 -0.0540655 0)
(-0.00984828 0.120403 0)
(-0.0401576 0.263406 0)
(-0.0790264 0.320307 0)
(-0.109643 0.316442 0)
(-0.128255 0.276737 0)
(-0.137503 0.219671 0)
(-0.141087 0.156838 0)
(-0.142202 0.0944833 0)
(-0.143057 0.0353497 0)
(-0.144799 -0.0197963 0)
(-0.147622 -0.0710891 0)
(-0.150891 -0.118827 0)
(-0.153234 -0.16292 0)
(-0.152614 -0.202397 0)
(-0.146494 -0.234878 0)
(-0.132212 -0.256023 0)
(-0.107668 -0.259099 0)
(-0.0728305 -0.235042 0)
(-0.0341332 -0.173893 0)
(-0.00762692 -0.0698996 0)
(-0.0133296 0.14505 0)
(-0.0471886 0.302081 0)
(-0.0814686 0.352362 0)
(-0.100026 0.335605 0)
(-0.103453 0.284589 0)
(-0.0981582 0.220487 0)
(-0.089968 0.154824 0)
(-0.0829573 0.0927172 0)
(-0.0795144 0.0356123 0)
(-0.0806664 -0.0168694 0)
(-0.0864104 -0.0658174 0)
(-0.0959166 -0.112364 0)
(-0.107576 -0.157207 0)
(-0.118937 -0.200123 0)
(-0.126629 -0.239308 0)
(-0.126457 -0.27045 0)
(-0.113812 -0.285568 0)
(-0.0852857 -0.271986 0)
(-0.0449237 -0.212602 0)
(-0.0114573 -0.0913787 0)
(-0.0187699 0.176052 0)
(-0.0554479 0.339412 0)
(-0.0773351 0.372529 0)
(-0.074316 0.337292 0)
(-0.0549241 0.274458 0)
(-0.0300905 0.205962 0)
(-0.00725844 0.141489 0)
(0.00939891 0.0839492 0)
(0.0179594 0.0330227 0)
(0.0178977 -0.0129075 0)
(0.00952448 -0.0558187 0)
(-0.00626655 -0.097602 0)
(-0.0279861 -0.139777 0)
(-0.0533158 -0.183133 0)
(-0.0787159 -0.227069 0)
(-0.0989936 -0.268347 0)
(-0.106974 -0.299018 0)
(-0.094325 -0.303577 0)
(-0.0587288 -0.256016 0)
(-0.0174926 -0.121395 0)
(-0.0257262 0.217095 0)
(-0.0608609 0.368797 0)
(-0.0556999 0.369196 0)
(-0.0181372 0.311296 0)
(0.0314495 0.239627 0)
(0.07882 0.172451 0)
(0.116887 0.115132 0)
(0.142915 0.0674035 0)
(0.156395 0.0270724 0)
(0.157762 -0.0084469 0)
(0.14774 -0.0416396 0)
(0.127112 -0.0747961 0)
(0.0967964 -0.110013 0)
(0.0581786 -0.149097 0)
(0.0137715 -0.193137 0)
(-0.0317653 -0.241269 0)
(-0.0701919 -0.287997 0)
(-0.0882716 -0.318402 0)
(-0.0718267 -0.299256 0)
(-0.0254134 -0.164737 0)
(-0.0275574 0.270582 0)
(-0.0472139 0.373386 0)
(0.00984931 0.323437 0)
(0.0954847 0.24585 0)
(0.177374 0.175388 0)
(0.244103 0.119431 0)
(0.292992 0.076839 0)
(0.324745 0.044175 0)
(0.341124 0.0180657 0)
(0.34379 -0.00426074 0)
(0.333876 -0.0250858 0)
(0.311905 -0.0464549 0)
(0.277882 -0.0704366 0)
(0.231557 -0.0993357 0)
(0.173028 -0.135721 0)
(0.103915 -0.181827 0)
(0.029273 -0.237524 0)
(-0.0378893 -0.295618 0)
(-0.0678572 -0.326395 0)
(-0.028701 -0.225447 0)
(0.0149383 0.301496 0)
(0.0432113 0.312836 0)
(0.179832 0.21817 0)
(0.313216 0.141837 0)
(0.41277 0.0905394 0)
(0.482831 0.0569905 0)
(0.529856 0.0348268 0)
(0.558897 0.0195201 0)
(0.573722 0.00813071 0)
(0.576778 -0.00123464 0)
(0.56932 -0.00992362 0)
(0.551573 -0.0191084 0)
(0.522776 -0.0300973 0)
(0.481166 -0.0446798 0)
(0.424054 -0.0655438 0)
(0.348031 -0.0966365 0)
(0.248679 -0.143252 0)
(0.125034 -0.211258 0)
(0.0133292 -0.292503 0)
(0.0117246 -0.270503 0)
(0.305762 0.151354 0)
(0.415533 0.129802 0)
(0.584611 0.07479 0)
(0.700677 0.0410081 0)
(0.766098 0.0227647 0)
(0.804676 0.0128504 0)
(0.828106 0.00727876 0)
(0.841793 0.00392484 0)
(0.848692 0.00167611 0)
(0.850396 -6.21528e-05 0)
(0.847605 -0.00165578 0)
(0.840352 -0.00341132 0)
(0.827998 -0.00570847 0)
(0.809013 -0.00916662 0)
(0.780574 -0.0149099 0)
(0.737477 -0.0249819 0)
(0.667903 -0.0430523 0)
(0.549201 -0.0755347 0)
(0.388643 -0.126168 0)
(0.299231 -0.140504 0)
)
;

boundaryField
{
    movingWall
    {
        type            fixedValue;
        value           uniform (1 0 0);
    }
    fixedWalls
    {
        type            noSlip;
    }
    frontAndBack
    {
        type            empty;
    }
}


// ************************************************************************* //
