/*--------------------------------*- C++ -*----------------------------------*\
| =========                 |                                                 |
| \\      /  F ield         | OpenFOAM: The Open Source CFD Toolbox           |
|  \\    /   O peration     | Version:  v2006                                 |
|   \\  /    A nd           | Website:  www.openfoam.com                      |
|    \\/     M anipulation  |                                                 |
\*---------------------------------------------------------------------------*/
FoamFile
{
    version     2.0;
    format      ascii;
    class       volScalarField;
    location    "9";
    object      p;
}
// * * * * * * * * * * * * * * * * * * * * * * * * * * * * * * * * * * * * * //

dimensions      [0 2 -2 0 0 0 0];


internalField   nonuniform List<scalar> 
400
(
8.76935e-09
-0.0884272
-0.200119
-0.290087
-0.324874
-0.280385
-0.141892
0.0955477
0.426657
0.835631
1.29626
1.77284
2.2221
2.5966
2.85014
2.94568
2.86656
2.63106
2.31006
2.0423
0.0847316
-0.0055934
-0.0922654
-0.153026
-0.169814
-0.124869
-0.00640281
0.189732
0.459555
0.790587
1.16197
1.54539
1.90685
2.20971
2.41896
2.50721
2.46292
2.29788
2.04381
1.7666
0.190468
0.0665591
-0.0265212
-0.0820709
-0.0952521
-0.0532647
0.0530131
0.226401
0.463106
0.752276
1.076
1.41006
1.72541
1.99064
2.17527
2.2542
2.21448
2.05819
1.77943
1.39178
0.277169
0.107539
-0.00752967
-0.0709824
-0.0880923
-0.0494575
0.051971
0.217587
0.443146
0.718272
1.02628
1.34465
1.64618
1.90077
2.07791
2.15012
2.09943
1.91758
1.56662
1.02571
0.318076
0.101213
-0.0397757
-0.114486
-0.136227
-0.0979597
0.00579078
0.1751
0.405046
0.685197
0.999227
1.3251
1.63575
1.90034
2.08587
2.16002
2.09795
1.88093
1.44217
0.735213
0.293614
0.0301046
-0.137135
-0.222576
-0.246188
-0.202574
-0.0874424
0.0981061
0.348393
0.652637
0.994352
1.35117
1.69502
1.99274
2.20694
2.29834
2.23331
1.98164
1.44822
0.564964
0.18712
-0.122407
-0.314344
-0.407204
-0.427029
-0.369735
-0.23202
-0.0160746
0.271679
0.620044
1.01219
1.42504
1.82884
2.18699
2.45604
2.58753
2.53658
2.25886
1.62767
0.552825
-0.0183445
-0.373473
-0.58687
-0.681061
-0.688431
-0.606343
-0.432574
-0.170408
0.173087
0.586505
1.05291
1.54869
2.04234
2.49328
2.85066
3.05445
3.04503
2.75925
2.03068
0.741742
-0.342345
-0.742649
-0.972284
-1.05854
-1.04133
-0.920161
-0.694285
-0.368206
0.0505779
0.550974
1.11672
1.72451
2.34183
2.92432
3.41292
3.73347
3.80703
3.54406
2.72392
1.19016
-0.808992
-1.25348
-1.49114
-1.55588
-1.49752
-1.31907
-1.02207
-0.612432
-0.0977136
0.512267
1.20334
1.9543
2.7334
3.49391
4.16865
4.66707
4.8852
4.69595
3.8009
1.98348
-1.44917
-1.93529
-2.16778
-2.19092
-2.06863
-1.80975
-1.41921
-0.904611
-0.272863
0.469009
1.31122
2.23759
3.22051
4.21406
5.14492
5.90503
6.35928
6.32759
5.39658
3.2509
-2.30413
-2.82583
-3.03112
-2.98235
-2.76452
-2.39561
-1.88544
-1.24331
-0.474301
0.419649
1.43648
2.56946
3.80054
5.09063
6.36552
7.50171
8.32828
8.5928
7.70992
5.19456
-3.43255
-3.9754
-4.11535
-3.94798
-3.59026
-3.07364
-2.41408
-1.62201
-0.698612
0.362536
1.57165
2.93756
4.45985
6.11632
7.84281
9.50917
10.9098
11.7001
11.04
8.14553
-4.92568
-5.45367
-5.45942
-5.10045
-4.54069
-3.8291
-2.98779
-2.02612
-0.937895
0.296099
1.70404
3.3181
5.16654
7.25942
9.56255
11.9607
14.2299
15.9245
15.8449
12.6801
-6.93913
-7.35951
-7.10208
-6.43699
-5.58982
-4.62684
-3.57228
-2.42895
-1.17767
0.219099
1.81378
3.67058
5.85987
8.44542
11.4555
14.8335
18.3869
21.6018
22.831
19.8598
-9.74776
-9.82902
-9.06906
-7.9233
-6.67696
-5.40142
-4.1103
-2.78848
-1.39532
0.131086
1.873
3.93435
6.44151
9.53808
13.3623
17.9949
23.3842
29.0795
33.0375
31.6454
-13.8432
-13.033
-11.3517
-9.48108
-7.70134
-6.05649
-4.52396
-3.0503
-1.56181
0.0332941
1.84988
4.03545
6.78271
10.3421
15.0249
21.173
29.0675
38.6049
47.8557
51.6174
-20.3384
-17.1631
-13.7897
-10.8956
-8.46446
-6.43227
-4.69798
-3.14007
-1.63885
-0.0713004
1.70563
3.87677
6.69878
10.5436
15.9595
23.7118
34.6934
49.7561
69.1692
87.9008
-32.1677
-22.2304
-15.5241
-11.3564
-8.36603
-6.11827
-4.36618
-2.89772
-1.54925
-0.181922
1.35145
3.24
5.76066
9.35806
14.7934
23.332
36.8247
58.7359
98.7954
162.053
-51.2902
-26.9023
-14.914
-9.71316
-6.7247
-4.74028
-3.32748
-2.21723
-1.24323
-0.290487
0.748868
2.00961
3.69796
6.18303
10.2078
17.2553
30.1536
57.1174
129.509
290.853
)
;

boundaryField
{
    movingWall
    {
        type            zeroGradient;
    }
    fixedWalls
    {
        type            zeroGradient;
    }
    frontAndBack
    {
        type            empty;
    }
}


// ************************************************************************* //
