/*--------------------------------*- C++ -*----------------------------------*\
| =========                 |                                                 |
| \\      /  F ield         | OpenFOAM: The Open Source CFD Toolbox           |
|  \\    /   O peration     | Version:  v2006                                 |
|   \\  /    A nd           | Website:  www.openfoam.com                      |
|    \\/     M anipulation  |                                                 |
\*---------------------------------------------------------------------------*/
FoamFile
{
    version     2.0;
    format      ascii;
    class       surfaceScalarField;
    location    "9";
    object      phi;
}
// * * * * * * * * * * * * * * * * * * * * * * * * * * * * * * * * * * * * * //

dimensions      [0 3 -1 0 0 0 0];
oriented        oriented;


internalField   nonuniform List<scalar> 
760
(
1.85294e-06
-1.85295e-06
-3.40807e-06
5.26102e-06
-1.5429e-05
1.2021e-05
-3.11803e-05
1.57513e-05
-4.76849e-05
1.65046e-05
-6.25854e-05
1.49005e-05
-7.42494e-05
1.1664e-05
-8.17197e-05
7.47025e-06
-8.46022e-05
2.88247e-06
-8.29514e-05
-1.65073e-06
-7.71753e-05
-5.77605e-06
-6.79626e-05
-9.21272e-06
-5.62284e-05
-1.17342e-05
-4.30699e-05
-1.31586e-05
-2.97196e-05
-1.33503e-05
-1.74827e-05
-1.2237e-05
-7.63683e-06
-9.84584e-06
-1.28034e-06
-6.35647e-06
9.65252e-07
-2.24558e-06
9.65259e-07
-5.28313e-06
3.43018e-06
-2.54509e-05
2.54288e-05
-5.77894e-05
4.43594e-05
-9.65614e-05
5.45233e-05
-0.000135845
5.57884e-05
-0.000170712
4.97668e-05
-0.00019763
3.85829e-05
-0.000214484
2.43238e-05
-0.0002204
8.79852e-06
-0.000215538
-6.5129e-06
-0.000200888
-2.04258e-05
-0.000178106
-3.19948e-05
-0.000149374
-4.04665e-05
-0.000117273
-4.52597e-05
-8.46422e-05
-4.59806e-05
-5.43953e-05
-4.24839e-05
-2.92558e-05
-3.49853e-05
-1.13978e-05
-2.42146e-05
-1.92805e-06
-1.17153e-05
-9.62776e-07
-1.36553e-05
1.70854e-05
-4.96779e-05
6.14515e-05
-0.000101054
9.57355e-05
-0.000159476
0.000112945
-0.000217016
0.000113329
-0.000267198
9.99488e-05
-0.000305413
7.67974e-05
-0.000328922
4.78324e-05
-0.000336648
1.65245e-05
-0.000328901
-1.42593e-05
-0.000307118
-4.22085e-05
-0.000273639
-6.54748e-05
-0.000231515
-8.259e-05
-0.000184339
-9.24359e-05
-0.000136039
-9.42802e-05
-9.06289e-05
-8.78941e-05
-5.18667e-05
-7.37475e-05
-2.28326e-05
-5.32487e-05
-5.43981e-06
-2.91081e-05
-6.40258e-06
-2.11758e-05
3.82613e-05
-7.24721e-05
0.000112748
-0.000142099
0.000165362
-0.000218775
0.000189621
-0.000292677
0.000187231
-0.000356143
0.000163414
-0.000403891
0.000124545
-0.000432887
7.68291e-05
-0.00044204
2.56774e-05
-0.000431854
-2.44459e-05
-0.000404117
-6.99449e-05
-0.000361655
-0.000107937
-0.000308119
-0.000136125
-0.00024781
-0.000152745
-0.000185463
-0.000156627
-0.000125988
-0.000147369
-7.41186e-05
-0.000125617
-3.39885e-05
-9.33788e-05
-8.69061e-06
-5.4406e-05
-1.50932e-05
-2.79235e-05
6.61847e-05
-9.37714e-05
0.000178596
-0.000181071
0.000252662
-0.000275329
0.000283879
-0.000364748
0.00027665
-0.000440594
0.00023926
-0.000497112
0.000181064
-0.000531169
0.000110886
-0.00054178
3.62885e-05
-0.000529667
-3.65589e-05
-0.000496896
-0.000102716
-0.000446616
-0.000158218
-0.000382871
-0.00019987
-0.000310455
-0.000225162
-0.000234746
-0.000232336
-0.000161485
-0.00022063
-9.64478e-05
-0.000190654
-4.50291e-05
-0.000144797
-1.17751e-05
-8.76601e-05
-2.68683e-05
-3.42699e-05
0.000100455
-0.000114248
0.000258573
-0.000218895
0.000357309
-0.000330373
0.000395358
-0.000434846
0.000381123
-0.000522567
0.000326981
-0.000587459
0.000245955
-0.000626438
0.000149865
-0.000638729
4.85798e-05
-0.000625284
-5.00048e-05
-0.000588362
-0.000139637
-0.000531283
-0.000215297
-0.000458282
-0.000272871
-0.000374452
-0.000308992
-0.000285673
-0.000321114
-0.000198483
-0.000307821
-0.000119806
-0.000269331
-5.65289e-05
-0.000208074
-1.49297e-05
-0.000129259
-4.1798e-05
-4.05741e-05
0.000141029
-0.00013463
0.000352629
-0.000256477
0.000479157
-0.00038482
0.0005237
-0.000503783
0.000500086
-0.000602747
0.000425946
-0.000675512
0.00031872
-0.000719235
0.000193588
-0.000733463
6.28086e-05
-0.00071939
-6.40776e-05
-0.000679379
-0.000179648
-0.000616728
-0.000277948
-0.000535629
-0.00035397
-0.000441226
-0.000403395
-0.000339712
-0.000422628
-0.000238344
-0.000409189
-0.000145284
-0.00036239
-6.91785e-05
-0.00028418
-1.84127e-05
-0.000180025
-6.02106e-05
-4.71271e-05
0.000188156
-0.000155487
0.000460989
-0.000294361
0.00061803
-0.000438855
0.000668195
-0.000571182
0.000632413
-0.000680144
0.000534908
-0.000759757
0.000398333
-0.000807708
0.000241539
-0.000824034
7.91344e-05
-0.000810192
-7.7919e-05
-0.00076853
-0.000221311
-0.000702092
-0.000344385
-0.000614701
-0.000441362
-0.000511201
-0.000506894
-0.000397782
-0.000536048
-0.000282232
-0.000524739
-0.000173978
-0.000470645
-8.3718e-05
-0.00037444
-2.24971e-05
-0.000241246
-8.27078e-05
-5.4154e-05
0.00024231
-0.000177157
0.000583992
-0.000332543
0.000773417
-0.000491665
0.000827316
-0.00063513
0.000775877
-0.000751705
0.000651483
-0.000836184
0.000482812
-0.000887211
0.000292566
-0.000905557
9.74799e-05
-0.000892985
-9.04903e-05
-0.000851684
-0.000262612
-0.000784143
-0.000411927
-0.000693382
-0.000532122
-0.000583437
-0.000616839
-0.000459986
-0.0006595
-0.00033096
-0.000653764
-0.000206931
-0.000594674
-0.00010095
-0.000480421
-2.74944e-05
-0.000314701
-0.000110202
-6.18647e-05
0.000304174
-0.000199781
0.000721908
-0.000370397
0.000944033
-0.000541189
0.000998109
-0.000691788
0.000926476
-0.000811836
0.000771531
-0.000897749
0.000568725
-0.000949734
0.000344552
-0.000969617
0.000117362
-0.000959531
-0.000100577
-0.000921337
-0.000300805
-0.000856604
-0.00047666
-0.000767007
-0.00062172
-0.000655077
-0.000728769
-0.000525208
-0.000789368
-0.000384779
-0.000794193
-0.000245109
-0.000734344
-0.000121809
-0.000603721
-3.38109e-05
-0.0004027
-0.000144013
-7.05546e-05
0.000374729
-0.000223394
0.000874748
-0.000406587
0.00112722
-0.000583812
0.00117533
-0.000734896
0.00107756
-0.00085179
0.000888424
-0.000933715
0.000650651
-0.000983215
0.000394052
-0.00100354
0.000137693
-0.000997271
-0.000106851
-0.00096575
-0.000332326
-0.000909231
-0.00053318
-0.00082742
-0.000703531
-0.000720482
-0.000835707
-0.00059045
-0.0009194
-0.000443003
-0.00094164
-0.000289326
-0.000888021
-0.000147475
-0.000745572
-4.2049e-05
-0.000508126
-0.000186062
-8.07766e-05
0.000455506
-0.000248048
0.00104202
-0.000438882
0.00131806
-0.000613831
0.00135028
-0.000755026
0.00121875
-0.000858852
0.00099225
-0.000928866
0.000720665
-0.000970796
0.000435981
-0.000989666
0.000156563
-0.000988496
-0.00010802
-0.000967961
-0.000352861
-0.000926634
-0.000574507
-0.000861662
-0.000768502
-0.000769904
-0.000927465
-0.000649677
-0.00103963
-0.000503247
-0.00108807
-0.000339973
-0.0010513
-0.000179482
-0.000906063
-5.31804e-05
-0.000634428
-0.000239242
-9.36215e-05
0.000549127
-0.000273846
0.00122224
-0.000463597
0.00150781
-0.000622419
0.00150911
-0.000738378
0.00133471
-0.000815252
0.00106912
-0.000862643
0.000768055
-0.000890153
0.000463491
-0.000904695
0.000171105
-0.000909633
-0.000103082
-0.000904806
-0.000357688
-0.000886925
-0.000592388
-0.000850218
-0.000805209
-0.00078747
-0.000990212
-0.000691834
-0.00113526
-0.000559877
-0.00122003
-0.000396251
-0.00121492
-0.000219747
-0.00108257
-6.88333e-05
-0.000785341
-0.000308076
-0.000111116
0.000660243
-0.000300592
0.00141172
-0.000474092
0.00168131
-0.000595516
0.00163053
-0.000664781
0.00140398
-0.000696691
0.00110103
-0.000708289
0.000779653
-0.000713123
0.000468325
-0.000719577
0.000177559
-0.000730991
-9.16673e-05
-0.000746263
-0.000342416
-0.000760384
-0.000578267
-0.000764854
-0.000800739
-0.000748244
-0.00100682
-0.000697493
-0.00118601
-0.000600929
-0.00131659
-0.000454204
-0.00136165
-0.000270123
-0.00126665
-9.17151e-05
-0.000963748
-0.000399791
-0.000136449
0.000796692
-0.000325948
0.00160122
-0.000456968
0.00181233
-0.00050964
0.0016832
-0.000504396
0.00139873
-0.000470436
0.00106707
-0.000432249
0.000741467
-0.000406013
0.000442089
-0.000400242
0.000171787
-0.000417474
-7.4435e-05
-0.000455627
-0.000304264
-0.000508621
-0.000525274
-0.000566342
-0.000743018
-0.000614268
-0.000958897
-0.000633439
-0.00116684
-0.000602187
-0.00134784
-0.000501938
-0.00146189
-0.000330348
-0.00143824
-0.000125902
-0.00116819
-0.000525693
-0.000172454
0.000969146
-0.000338932
0.0017677
-0.000383083
0.00185648
-0.000324011
0.00162413
-0.000212704
0.00128743
-9.32555e-05
0.000947625
5.63718e-06
0.000642574
6.87615e-05
0.000378965
9.00453e-05
0.000150504
6.89782e-05
-5.3368e-05
8.57355e-06
-0.000243859
-8.52307e-05
-0.000431469
-0.00020297
-0.000625278
-0.000330067
-0.0008318
-0.000444698
-0.00105221
-0.000516426
-0.00127612
-0.000508656
-0.00146966
-0.000390867
-0.00155603
-0.000175437
-0.00138362
-0.00070113
-0.000213908
0.00118305
-0.00030148
0.00185527
-0.000188284
0.00174328
3.28924e-05
0.00140295
0.00027605
0.00104427
0.000489859
0.000733816
0.000650138
0.000482295
0.000748896
0.000280207
0.000786016
0.000113384
0.000764413
-3.17645e-05
0.000687855
-0.000167301
0.000560581
-0.000304195
0.000388301
-0.000452997
0.000180656
-0.000624155
-4.45712e-05
-0.000826985
-0.000255688
-0.001065
-0.000401627
-0.00132372
-0.000412639
-0.00154502
-0.000236564
-0.0015597
-0.000937694
-0.000222952
0.00140601
-0.000102772
0.00173509
0.000264055
0.00137646
0.000683395
0.000983612
0.00105515
0.000672514
0.00134413
0.000444836
0.00154545
0.000280973
0.00166558
0.000160084
0.00171312
6.58432e-05
0.00169504
-1.36887e-05
0.00161548
-8.77399e-05
0.00147577
-0.000164483
0.0012753
-0.000252532
0.00101357
-0.000362423
0.000694436
-0.000507851
0.000334506
-0.000705069
-2.18588e-05
-0.00096736
-0.000277425
-0.00128945
-0.000272527
-0.0015646
-0.00121022
-8.82851e-06
0.00141483
0.000570018
0.00115624
0.0012524
0.000694073
0.00182122
0.000414797
0.00224233
0.000251405
0.00253414
0.000153025
0.00272345
9.16606e-05
0.00283262
5.0913e-05
0.00287715
2.13174e-05
0.00286618
-2.71769e-06
0.00280338
-2.49494e-05
0.0026875
-4.86014e-05
0.00251238
-7.74088e-05
0.00226683
-0.000116879
0.00193511
-0.000176126
0.0015004
-0.000270357
0.000957852
-0.000424814
0.000354049
-0.000685649
-0.000101697
-0.00110885
-0.00131192
0.00141483
0.00257108
0.00326515
0.00367995
0.00393135
0.00408438
0.00417604
0.00422695
0.00424827
0.00424555
0.0042206
0.004172
0.00409459
0.00397771
0.00380159
0.00353123
0.00310642
0.00242077
0.00131192
)
;

boundaryField
{
    movingWall
    {
        type            calculated;
        value           uniform 0;
    }
    fixedWalls
    {
        type            calculated;
        value           uniform 0;
    }
    frontAndBack
    {
        type            empty;
        value           nonuniform List<scalar> 0();
    }
}


// ************************************************************************* //
