/*--------------------------------*- C++ -*----------------------------------*\
| =========                 |                                                 |
| \\      /  F ield         | OpenFOAM: The Open Source CFD Toolbox           |
|  \\    /   O peration     | Version:  v2006                                 |
|   \\  /    A nd           | Website:  www.openfoam.com                      |
|    \\/     M anipulation  |                                                 |
\*---------------------------------------------------------------------------*/
FoamFile
{
    version     2.0;
    format      ascii;
    class       surfaceScalarField;
    location    "8";
    object      nu;
}
// * * * * * * * * * * * * * * * * * * * * * * * * * * * * * * * * * * * * * //

dimensions      [0 2 -1 0 0 0 0];


internalField   nonuniform List<scalar> 
760
(
1.06494
1.02863
1.15988
1.10838
1.28481
1.21813
1.43975
1.35788
1.62469
1.52763
1.83963
1.72738
2.08456
1.95713
2.3595
2.21688
2.66444
2.50664
2.99938
2.82639
3.36431
3.17614
3.75925
3.55589
4.18419
3.96564
4.63913
4.40539
5.12406
4.87514
5.639
5.37489
6.18394
5.90465
6.75888
6.4644
7.36381
7.05415
7.6739
1.06444
1.02826
1.15889
1.10728
1.28333
1.2163
1.43778
1.35532
1.62222
1.52434
1.83666
1.72336
2.08111
1.95238
2.35555
2.2114
2.65999
2.50042
2.99444
2.81944
3.35888
3.16846
3.75333
3.54748
4.17777
3.9565
4.63221
4.39551
5.11666
4.86453
5.6311
5.36355
6.17554
5.89257
6.74999
6.45159
7.35443
7.04061
7.65963
1.06348
1.02767
1.15697
1.10552
1.28045
1.21337
1.43394
1.35121
1.61742
1.51906
1.83091
1.71691
2.07439
1.94475
2.34788
2.2026
2.65136
2.49045
2.98485
2.8083
3.34833
3.15614
3.74182
3.53399
4.1653
3.94184
4.61879
4.37968
5.10227
4.84753
5.61576
5.34538
6.15924
5.87322
6.73273
6.43107
7.33621
7.01892
7.63676
1.06211
1.0269
1.15423
1.10319
1.27634
1.20949
1.42846
1.34579
1.61057
1.51208
1.82269
1.70838
2.0648
1.93468
2.33691
2.19097
2.63903
2.47727
2.97114
2.79356
3.33326
3.13986
3.72537
3.51616
4.14749
3.92245
4.5996
4.35875
5.08171
4.82505
5.59383
5.32134
6.13594
5.84764
6.70806
6.40394
7.31017
6.99023
7.60653
1.0604
1.02597
1.15081
1.10042
1.27121
1.20486
1.42161
1.33931
1.60201
1.50375
1.81242
1.69819
2.05282
1.92264
2.32322
2.17708
2.62363
2.46153
2.95403
2.77597
3.31443
3.12042
3.70484
3.49486
4.12524
3.89931
4.57564
4.33375
5.05604
4.79819
5.56645
5.29264
6.10685
5.81708
6.67725
6.37153
7.27766
6.95597
7.57042
1.05843
1.02494
1.14686
1.09731
1.26529
1.19968
1.41372
1.33206
1.59216
1.49443
1.80059
1.6868
2.03902
1.90917
2.30745
2.16155
2.60588
2.44392
2.93431
2.75629
3.29274
3.09867
3.68117
3.47104
4.0996
3.87341
4.54803
4.30578
5.02647
4.76816
5.5349
5.26053
6.07333
5.7829
6.64176
6.33528
7.24019
6.91765
7.53002
1.05628
1.02383
1.14256
1.09399
1.25884
1.19415
1.40512
1.32431
1.5814
1.48447
1.78768
1.67463
2.02396
1.89479
2.29024
2.14495
2.58652
2.42512
2.9128
2.73528
3.26908
3.07544
3.65536
3.4456
4.07164
3.84576
4.51792
4.27592
4.9942
4.73608
5.50047
5.22624
6.03675
5.7464
6.60303
6.29656
7.19931
6.87672
7.48688
1.05402
1.02269
1.13805
1.09057
1.25207
1.18845
1.3961
1.31633
1.57012
1.4742
1.77415
1.66208
2.00817
1.87996
2.2722
2.12784
2.56622
2.40572
2.89024
2.7136
3.24427
3.05148
3.62829
3.41936
4.04232
3.81723
4.48634
4.24511
4.96037
4.70299
5.46439
5.19087
5.99841
5.70875
6.56244
6.25663
7.15646
6.83451
7.44239
1.05173
1.02154
1.13346
1.08713
1.24519
1.18272
1.38692
1.30831
1.55865
1.46389
1.76039
1.64948
1.99212
1.86507
2.25385
2.11065
2.54558
2.38624
2.86731
2.69183
3.21904
3.02742
3.60077
3.393
4.0125
3.78859
4.45423
4.21418
4.92596
4.66976
5.4277
5.15535
5.95943
5.67094
6.52116
6.21653
7.11289
6.79211
7.3977
1.04945
1.02042
1.12891
1.08375
1.23836
1.17708
1.37781
1.30042
1.54727
1.45375
1.74672
1.63708
1.97617
1.85042
2.23562
2.09375
2.52508
2.36708
2.84453
2.67042
3.19398
3.00375
3.57344
3.36708
3.98289
3.76042
4.42234
4.18375
4.8918
4.63708
5.39125
5.12042
5.9207
5.63375
6.48016
6.17708
7.06961
6.75042
7.35375
1.04723
1.01933
1.12446
1.08048
1.2317
1.17163
1.36893
1.29278
1.53616
1.44394
1.73339
1.62509
1.96062
1.83624
2.21786
2.07739
2.50509
2.34855
2.82232
2.6497
3.16955
2.98085
3.54678
3.34201
3.95402
3.73316
4.39125
4.15431
4.85848
4.60546
5.35571
5.08662
5.88295
5.59777
6.44018
6.13892
7.02741
6.71007
7.31123
1.0451
1.01828
1.1202
1.07735
1.22529
1.16642
1.36039
1.28549
1.52549
1.43456
1.72059
1.61363
1.94568
1.8227
2.20078
2.06177
2.48588
2.33084
2.80098
2.62991
3.14608
2.95898
3.52117
3.31805
3.92627
3.70712
4.36137
4.12619
4.82647
4.57526
5.32157
5.05433
5.84666
5.5634
6.40176
6.10247
6.98686
6.67154
7.27061
1.04307
1.0173
1.11614
1.0744
1.21921
1.1615
1.35228
1.2786
1.51535
1.4257
1.70842
1.6028
1.93149
1.8099
2.18456
2.047
2.46763
2.3141
2.7807
2.6112
3.12377
2.9383
3.49684
3.2954
3.89991
3.6825
4.33298
4.0996
4.79605
4.5467
5.28912
5.0238
5.81219
5.5309
6.36526
6.068
6.94833
6.63511
7.23221
1.04116
1.01638
1.11232
1.07163
1.21348
1.15688
1.34464
1.27213
1.5058
1.41739
1.69697
1.59264
1.91813
1.79789
2.16929
2.03314
2.45045
2.2984
2.76161
2.59365
3.10277
2.9189
3.47393
3.27415
3.87509
3.65941
4.30625
4.07466
4.76741
4.51991
5.25857
4.99516
5.77974
5.50042
6.3309
6.03567
6.91206
6.60092
7.19617
1.03938
1.01551
1.10875
1.06904
1.20813
1.15257
1.3375
1.2661
1.49688
1.40963
1.68625
1.58316
1.90563
1.78669
2.155
2.02022
2.43438
2.28375
2.74375
2.57728
3.08313
2.90081
3.4525
3.25434
3.85188
3.63787
4.28126
4.0514
4.74063
4.49493
5.23001
4.96846
5.74938
5.47199
6.29876
6.00551
6.87813
6.56904
7.16257
1.03771
1.01471
1.10543
1.06664
1.20314
1.14857
1.33086
1.2605
1.48857
1.40243
1.67629
1.57436
1.894
1.77629
2.14171
2.00822
2.41943
2.27015
2.72714
2.56208
3.06486
2.88401
3.43257
3.23594
3.83029
3.61787
4.258
4.0298
4.71572
4.47173
5.20343
4.94366
5.72114
5.44559
6.26886
5.97752
6.84657
6.53945
7.13138
1.03618
1.01397
1.10235
1.06442
1.19853
1.14487
1.3247
1.25532
1.48088
1.39577
1.66705
1.56622
1.88323
1.76667
2.1294
1.99712
2.40558
2.25757
2.71175
2.54802
3.04793
2.86847
3.4141
3.21892
3.81028
3.59937
4.23645
4.00982
4.69263
4.45027
5.1788
4.92072
5.69498
5.42117
6.24115
5.95162
6.81733
6.51207
7.10252
1.03475
1.01329
1.09951
1.06238
1.19426
1.14146
1.31901
1.25054
1.47377
1.38963
1.65852
1.55871
1.87327
1.7578
2.11802
1.98688
2.39278
2.24596
2.69753
2.53505
3.03228
2.85413
3.39704
3.20322
3.79179
3.5823
4.21654
3.99138
4.6713
4.43047
5.15605
4.89955
5.6708
5.39864
6.21556
5.92772
6.79031
6.4868
7.07589
1.03344
1.01266
1.09688
1.06049
1.19033
1.13831
1.31377
1.24614
1.46721
1.38396
1.65065
1.55179
1.86409
1.74961
2.10753
1.97744
2.38098
2.23527
2.68442
2.52309
3.01786
2.84092
3.3813
3.18874
3.77474
3.56657
4.19818
3.97439
4.65163
4.41222
5.13507
4.88004
5.64851
5.37787
6.19195
5.90569
6.76539
6.46352
7.05134
1.03223
1.09447
1.1867
1.30894
1.46117
1.6434
1.85564
2.09787
2.37011
2.67234
3.00457
3.36681
3.75904
4.18128
4.63351
5.11574
5.62798
6.17021
6.74245
)
;

boundaryField
{
    movingWall
    {
        type            calculated;
        value           nonuniform List<scalar> 
20
(
1.01208
1.05875
1.13542
1.24208
1.37875
1.54542
1.74208
1.96875
2.22542
2.51208
2.82875
3.17542
3.55208
3.95875
4.39542
4.86208
5.35875
5.88542
6.44208
7.02875
)
;
    }
    fixedWalls
    {
        type            calculated;
        value           nonuniform List<scalar> 
60
(
1
1
1
1
1
1
1
1
1
1
1
1
1
1
1
1
1
1
1
1
7.99875
7.98888
7.9697
7.94229
7.90806
7.86862
7.82559
7.78049
7.73462
7.68906
7.64464
7.60196
7.5614
7.52322
7.48751
7.45429
7.4235
7.39506
7.36883
7.34468
1.02875
1.10875
1.21875
1.35875
1.52875
1.72875
1.95875
2.21875
2.50875
2.82875
3.17875
3.55875
3.96875
4.40875
4.87875
5.37875
5.90875
6.46875
7.05875
7.67875
)
;
    }
    frontAndBack
    {
        type            empty;
        value           nonuniform List<scalar> 0();
    }
}


// ************************************************************************* //
