/*--------------------------------*- C++ -*----------------------------------*\
| =========                 |                                                 |
| \\      /  F ield         | OpenFOAM: The Open Source CFD Toolbox           |
|  \\    /   O peration     | Version:  v2006                                 |
|   \\  /    A nd           | Website:  www.openfoam.com                      |
|    \\/     M anipulation  |                                                 |
\*---------------------------------------------------------------------------*/
FoamFile
{
    version     2.0;
    format      ascii;
    class       surfaceScalarField;
    location    "1.11";
    object      phi;
}
// * * * * * * * * * * * * * * * * * * * * * * * * * * * * * * * * * * * * * //

dimensions      [0 3 -1 0 0 0 0];
oriented        oriented;


internalField   nonuniform List<scalar> 
760
(
1.83282e-07
-1.83282e-07
-6.52336e-06
6.70664e-06
-1.94161e-05
1.28928e-05
-3.5543e-05
1.61268e-05
-5.20187e-05
1.64757e-05
-6.65913e-05
1.45726e-05
-7.77421e-05
1.11507e-05
-8.46175e-05
6.87542e-06
-8.69093e-05
2.29183e-06
-8.4736e-05
-2.17331e-06
-7.85467e-05
-6.18937e-06
-6.90495e-05
-9.49711e-06
-5.71599e-05
-1.18897e-05
-4.39565e-05
-1.32034e-05
-3.06362e-05
-1.33203e-05
-1.84513e-05
-1.21849e-05
-8.613e-06
-9.83826e-06
-2.13487e-06
-6.47813e-06
4.6015e-07
-2.59502e-06
4.6015e-07
-6.86191e-06
6.67863e-06
-2.8943e-05
2.87877e-05
-6.28934e-05
4.68431e-05
-0.000102685
5.5918e-05
-0.00014233
5.61209e-05
-0.000176997
4.92397e-05
-0.000203327
3.7481e-05
-0.000219383
2.2931e-05
-0.000224446
7.35496e-06
-0.000218789
-7.82982e-06
-0.000203473
-2.15056e-05
-0.000180181
-3.27895e-05
-0.000151087
-4.09828e-05
-0.000118742
-4.55489e-05
-8.5933e-05
-4.61292e-05
-5.55171e-05
-4.26008e-05
-3.01736e-05
-3.51818e-05
-1.20561e-05
-2.45956e-05
-2.27435e-06
-1.23768e-05
-1.8142e-06
-1.47657e-05
2.14444e-05
-5.24077e-05
6.64297e-05
-0.000105125
9.95607e-05
-0.000164293
0.000115086
-0.00022194
0.000113768
-0.000271709
9.90083e-05
-0.000309183
7.49556e-05
-0.000331822
4.55697e-05
-0.000338709
1.42418e-05
-0.000330263
-1.62753e-05
-0.000307977
-4.37919e-05
-0.000274197
-6.65698e-05
-0.000231947
-8.3233e-05
-0.000184762
-9.27336e-05
-0.000136504
-9.43874e-05
-9.11187e-05
-8.79858e-05
-5.2318e-05
-7.39825e-05
-2.3165e-05
-5.37486e-05
-5.59279e-06
-2.99491e-05
-7.40699e-06
-2.17757e-05
4.32201e-05
-7.38788e-05
0.000118533
-0.000143927
0.000169609
-0.000220471
0.00019163
-0.000293754
0.000187051
-0.000356296
0.000161549
-0.000403024
0.000121684
-0.000431095
7.36399e-05
-0.000439549
2.26959e-05
-0.000428965
-2.68596e-05
-0.000401148
-7.16089e-05
-0.00035889
-0.000108828
-0.000305778
-0.000136345
-0.000246023
-0.000152489
-0.000184265
-0.000156146
-0.000125322
-0.000146929
-7.38551e-05
-0.000125449
-3.39545e-05
-9.36492e-05
-8.71577e-06
-5.51877e-05
-1.61228e-05
-2.79649e-05
7.11849e-05
-9.34557e-05
0.000184024
-0.000179827
0.00025598
-0.000272685
0.000284487
-0.000360461
0.000274827
-0.000434681
0.000235769
-0.000489819
0.000176823
-0.000522905
0.000106726
-0.000533043
3.28339e-05
-0.000520972
-3.89311e-05
-0.000488715
-0.000103865
-0.000439338
-0.000158205
-0.000376773
-0.00019891
-0.000305686
-0.000223576
-0.000231323
-0.000230508
-0.000159299
-0.000218953
-9.52799e-05
-0.000189468
-4.4578e-05
-0.000144351
-1.17004e-05
-8.80654e-05
-2.78232e-05
-3.37084e-05
0.000104893
-0.000111962
0.000262277
-0.000214071
0.00035809
-0.000322639
0.000393055
-0.000424259
0.000376447
-0.000509539
0.00032105
-0.000572644
0.000239928
-0.00061062
0.000144702
-0.000622717
4.49311e-05
-0.000609833
-5.18147e-05
-0.000574122
-0.000139577
-0.000518755
-0.000213571
-0.000447809
-0.000269856
-0.000366205
-0.00030518
-0.000279656
-0.000317057
-0.000194532
-0.000304077
-0.000117604
-0.000266397
-5.56231e-05
-0.000206332
-1.4766e-05
-0.000128922
-4.25891e-05
-3.93819e-05
0.000144275
-0.000130243
0.000353138
-0.000247808
0.000475655
-0.000371611
0.000516859
-0.000486434
0.000491271
-0.000582109
0.000416724
-0.000652683
0.000310502
-0.000695396
0.000187414
-0.000709747
5.92823e-05
-0.000696797
-6.47649e-05
-0.000658726
-0.000177647
-0.000598632
-0.000273665
-0.000520497
-0.000347992
-0.000429258
-0.000396418
-0.000330906
-0.000415409
-0.000232494
-0.00040249
-0.000141979
-0.000356911
-6.78038e-05
-0.000280507
-1.81719e-05
-0.000178554
-6.07611e-05
-4.52993e-05
0.000189575
-0.000148963
0.000456801
-0.000281785
0.000608476
-0.000420118
0.000655192
-0.000547062
0.000618214
-0.000651953
0.000521615
-0.000729044
0.000387593
-0.000776037
0.000234407
-0.000792834
7.60795e-05
-0.000780676
-7.69232e-05
-0.000741655
-0.000216667
-0.000678565
-0.000336756
-0.000594983
-0.000431574
-0.000495527
-0.000495874
-0.000386162
-0.000524774
-0.000274446
-0.000514206
-0.000169548
-0.000461809
-8.18825e-05
-0.000368172
-2.22009e-05
-0.000238236
-8.2962e-05
-5.17233e-05
0.000241298
-0.000168569
0.000573648
-0.00031622
0.000756127
-0.000467706
0.000806678
-0.00060473
0.000755239
-0.000716644
0.000633529
-0.000798431
0.000469379
-0.000848654
0.00028463
-0.000867849
9.52744e-05
-0.000857476
-8.72956e-05
-0.00081941
-0.000254734
-0.000755847
-0.000400318
-0.000669558
-0.000517864
-0.000564354
-0.000601078
-0.000445698
-0.00064343
-0.000321285
-0.000638619
-0.000201388
-0.000581707
-9.86777e-05
-0.000470882
-2.71797e-05
-0.000309734
-0.000110142
-5.89135e-05
0.000300211
-0.000189324
0.000704058
-0.000350734
0.000917537
-0.000512733
0.000968676
-0.000656202
0.000898708
-0.000771345
0.000748672
-0.00085466
0.000552694
-0.000906145
0.000336116
-0.000927278
0.000116407
-0.000919806
-9.47675e-05
-0.000885233
-0.000289307
-0.000824828
-0.000460724
-0.000740034
-0.000602657
-0.000633206
-0.000707905
-0.000508578
-0.000768059
-0.000373326
-0.000773871
-0.000238465
-0.000716568
-0.000119117
-0.00059023
-3.35294e-05
-0.000395321
-0.000143671
-6.72111e-05
0.000367422
-0.000211369
0.000848216
-0.000384255
0.00109042
-0.000552072
0.00113649
-0.000695933
0.00104257
-0.00080821
0.000860949
-0.000888018
0.000632502
-0.000937523
0.00038562
-0.000959512
0.000138396
-0.000956099
-9.81798e-05
-0.000928269
-0.000317137
-0.000875995
-0.000512998
-0.000798818
-0.000679834
-0.000696817
-0.000809906
-0.000571983
-0.000892893
-0.000429904
-0.00091595
-0.000281517
-0.000864954
-0.000144305
-0.000727442
-4.18471e-05
-0.000497779
-0.000185518
-7.71643e-05
0.000444587
-0.000234785
0.00100584
-0.000414788
0.00127043
-0.000580559
0.00130226
-0.000715325
0.00117734
-0.000815572
0.000961196
-0.00088446
0.00070139
-0.000927136
0.000428297
-0.000948052
0.000159312
-0.000949745
-9.64872e-05
-0.000932537
-0.000334345
-0.000894796
-0.000550739
-0.000833602
-0.000741029
-0.000745873
-0.000897635
-0.00063007
-0.0010087
-0.000488589
-0.00105743
-0.000330729
-0.00102281
-0.000175559
-0.000882612
-5.303e-05
-0.000620308
-0.000238548
-8.97028e-05
0.00053429
-0.000259509
0.00117564
-0.000438799
0.00144972
-0.000589938
0.0014534
-0.000701502
0.0012889
-0.000776801
0.0010365
-0.000824655
0.000749244
-0.000853892
0.000457533
-0.000870791
0.000176211
-0.000878265
-8.90132e-05
-0.000875876
-0.000336734
-0.000860225
-0.00056639
-0.0008256
-0.000775654
-0.000765018
-0.000958216
-0.000672022
-0.00110169
-0.00054365
-0.0011858
-0.0003849
-0.00118156
-0.000214291
-0.00105322
-6.84479e-05
-0.000766151
-0.000306996
-0.000106324
0.000640614
-0.000284821
0.00135414
-0.000449685
0.00161458
-0.000566773
0.00157049
-0.000635282
0.00135741
-0.000668727
0.00106994
-0.000682963
0.00076348
-0.000690653
0.000465223
-0.000699604
0.000185162
-0.000712828
-7.57889e-05
-0.00072908
-0.000320482
-0.000743363
-0.000552107
-0.000747344
-0.000771672
-0.000729965
-0.000975595
-0.0006788
-0.00115286
-0.000583077
-0.00128152
-0.000439478
-0.00132516
-0.000261391
-0.00123131
-9.01383e-05
-0.000937403
-0.000397134
-0.000129024
0.000769638
-0.000307456
0.00153257
-0.000434142
0.00174127
-0.000488389
0.00162474
-0.000487845
0.00135686
-0.00045952
0.00104162
-0.000426484
0.000730444
-0.000404141
0.00044288
-0.000400676
0.000181697
-0.000418553
-5.79118e-05
-0.000455741
-0.000283293
-0.000506285
-0.000501564
-0.000560278
-0.00071768
-0.000603579
-0.000932294
-0.000617964
-0.00113847
-0.000583019
-0.00131647
-0.000482068
-0.00142612
-0.000315122
-0.00139825
-0.000120768
-0.00113176
-0.000517902
-0.000158503
0.000928142
-0.000315683
0.00168975
-0.00036387
0.00178945
-0.000315268
0.00157614
-0.000215552
0.00125715
-0.000106152
0.000932216
-1.46083e-05
0.0006389
4.41389e-05
0.000384133
6.38535e-05
0.000161983
4.37191e-05
-3.77774e-05
-1.35394e-05
-0.000226035
-0.000102188
-0.000412914
-0.000212894
-0.000606974
-0.000331253
-0.000813935
-0.000435935
-0.00103379
-0.000497706
-0.0012547
-0.00048246
-0.00144136
-0.000364597
-0.00151612
-0.000161857
-0.0013345
-0.000679759
-0.000186828
0.00111497
-0.000273314
0.00177624
-0.000177749
0.00169389
2.2239e-05
0.00137615
0.000247241
0.00103215
0.000447874
0.000731583
0.000600065
0.000486709
0.000695167
0.000289032
0.000732216
0.000124933
0.000713388
-1.89496e-05
0.000641937
-0.000154584
0.000521861
-0.000292839
0.00035892
-0.000444034
0.000163018
-0.000618032
-4.78605e-05
-0.000822913
-0.000242407
-0.00106015
-0.000371564
-0.00131221
-0.000372294
-0.00151539
-0.000206294
-0.0015005
-0.000886054
-0.000182279
0.00129725
-8.1257e-05
0.00167522
0.000253534
0.0013591
0.000644196
0.000985487
0.000995597
0.000680745
0.00127235
0.000454834
0.00146788
0.000291177
0.00158691
0.000169996
0.00163667
7.51823e-05
0.00162308
-5.36589e-06
0.00154965
-8.11541e-05
0.00141745
-0.000160639
0.00122607
-0.000252648
0.000975686
-0.000367651
0.000671367
-0.000518595
0.000330979
-0.000719764
-1.30416e-06
-0.000979922
-0.00023395
-0.00128274
-0.000224283
-0.00151016
-0.00111034
-1.85085e-05
0.00131576
0.000539442
0.00111726
0.00119523
0.000703309
0.00174383
0.000436888
0.00215429
0.000270284
0.00244258
0.000166548
0.00263266
0.000101089
0.00274507
5.75854e-05
0.00279417
2.60827e-05
0.00278835
4.61644e-07
0.00273071
-2.35161e-05
0.0026196
-4.95324e-05
0.00244875
-8.17964e-05
0.00220736
-0.000126258
0.00188101
-0.000192249
0.00145548
-0.000294236
0.000928054
-0.000452493
0.000342728
-0.000697414
-9.81462e-05
-0.00106929
-0.00120848
0.00131576
0.00243302
0.00313633
0.00357322
0.0038435
0.00401005
0.00411114
0.00416872
0.00419481
0.00419527
0.00417175
0.00412222
0.00404042
0.00391417
0.00372192
0.00342768
0.00297519
0.00227777
0.00120848
)
;

boundaryField
{
    movingWall
    {
        type            calculated;
        value           uniform 0;
    }
    fixedWalls
    {
        type            calculated;
        value           uniform 0;
    }
    frontAndBack
    {
        type            empty;
        value           nonuniform List<scalar> 0();
    }
}


// ************************************************************************* //
