/*--------------------------------*- C++ -*----------------------------------*\
| =========                 |                                                 |
| \\      /  F ield         | OpenFOAM: The Open Source CFD Toolbox           |
|  \\    /   O peration     | Version:  v2006                                 |
|   \\  /    A nd           | Website:  www.openfoam.com                      |
|    \\/     M anipulation  |                                                 |
\*---------------------------------------------------------------------------*/
FoamFile
{
    version     2.0;
    format      ascii;
    class       volScalarField;
    location    "3";
    object      p;
}
// * * * * * * * * * * * * * * * * * * * * * * * * * * * * * * * * * * * * * //

dimensions      [0 2 -2 0 0 0 0];


internalField   nonuniform List<scalar> 
400
(
2.04464e-06
-0.0884238
-0.200116
-0.290084
-0.32487
-0.280381
-0.141887
0.0955532
0.426662
0.835634
1.29626
1.77284
2.2221
2.5966
2.85015
2.94569
2.86656
2.63106
2.31005
2.0423
0.0847351
-0.00558939
-0.0922615
-0.153023
-0.169811
-0.124866
-0.00639896
0.189737
0.459561
0.790592
1.16198
1.54539
1.90685
2.20972
2.41897
2.50722
2.46293
2.29789
2.04381
1.7666
0.190471
0.0665633
-0.0265167
-0.0820668
-0.0952489
-0.0532623
0.0530155
0.226405
0.463112
0.752283
1.07601
1.41006
1.72541
1.99064
2.17527
2.2542
2.21449
2.0582
1.77943
1.39178
0.277172
0.107543
-0.00752494
-0.0709774
-0.0880881
-0.0494546
0.0519728
0.217589
0.44315
0.718278
1.02629
1.34466
1.64618
1.90078
2.07791
2.15012
2.09943
1.91759
1.56663
1.02571
0.318079
0.101216
-0.0397715
-0.114481
-0.136222
-0.0979553
0.00579341
0.175101
0.405048
0.6852
0.999233
1.32511
1.63576
1.90034
2.08587
2.16002
2.09795
1.88093
1.44217
0.73522
0.293618
0.0301074
-0.137131
-0.222572
-0.246182
-0.202568
-0.0874379
0.0981085
0.348394
0.652638
0.994356
1.35117
1.69503
1.99275
2.20694
2.29834
2.23331
1.98165
1.44823
0.564971
0.187124
-0.122404
-0.314342
-0.407201
-0.427025
-0.369728
-0.232014
-0.0160699
0.271681
0.620044
1.01219
1.42504
1.82884
2.18699
2.45604
2.58754
2.53658
2.25886
1.62767
0.55283
-0.0183394
-0.373469
-0.586867
-0.681059
-0.688429
-0.606339
-0.432568
-0.170402
0.173092
0.586507
1.05291
1.54869
2.04235
2.49328
2.85066
3.05446
3.04503
2.75925
2.03068
0.741744
-0.342339
-0.742644
-0.97228
-1.05854
-1.04133
-0.920158
-0.69428
-0.368199
0.050585
0.550979
1.11672
1.72451
2.34183
2.92432
3.41292
3.73348
3.80703
3.54406
2.72392
1.19016
-0.808988
-1.25347
-1.49114
-1.55588
-1.49752
-1.31907
-1.02206
-0.612427
-0.0977064
0.512274
1.20334
1.9543
2.7334
3.49391
4.16865
4.66708
4.88521
4.69596
3.8009
1.98348
-1.44916
-1.93528
-2.16777
-2.19091
-2.06863
-1.80975
-1.41921
-0.904608
-0.272858
0.469016
1.31122
2.23759
3.22051
4.21406
5.14492
5.90503
6.35928
6.3276
5.39658
3.2509
-2.30413
-2.82582
-3.03111
-2.98234
-2.76452
-2.39561
-1.88544
-1.24331
-0.474299
0.419654
1.43649
2.56946
3.80054
5.09063
6.36552
7.50171
8.32828
8.59281
7.70993
5.19456
-3.43255
-3.9754
-4.11535
-3.94797
-3.59026
-3.07363
-2.41407
-1.62201
-0.698611
0.362538
1.57165
2.93757
4.45986
6.11632
7.84281
9.50917
10.9098
11.7001
11.04
8.14554
-4.92568
-5.45367
-5.45942
-5.10044
-4.54069
-3.8291
-2.98779
-2.02612
-0.937894
0.296099
1.70404
3.31811
5.16655
7.25942
9.56255
11.9607
14.2299
15.9245
15.8449
12.6801
-6.93912
-7.3595
-7.10208
-6.43699
-5.58982
-4.62683
-3.57227
-2.42894
-1.17766
0.219101
1.81378
3.67058
5.85988
8.44543
11.4555
14.8335
18.3869
21.6018
22.831
19.8599
-9.74775
-9.82901
-9.06905
-7.9233
-6.67696
-5.40142
-4.11029
-2.78847
-1.39531
0.13109
1.87301
3.93435
6.44151
9.53808
13.3623
17.9949
23.3842
29.0795
33.0375
31.6454
-13.8432
-13.033
-11.3517
-9.48108
-7.70133
-6.05649
-4.52396
-3.05029
-1.56181
0.0332996
1.84989
4.03545
6.78271
10.3421
15.0249
21.173
29.0675
38.6049
47.8557
51.6174
-20.3384
-17.1631
-13.7897
-10.8956
-8.46446
-6.43227
-4.69798
-3.14006
-1.63885
-0.0712945
1.70563
3.87677
6.69878
10.5436
15.9595
23.7118
34.6935
49.7561
69.1693
87.9008
-32.1677
-22.2304
-15.5241
-11.3564
-8.36603
-6.11827
-4.36617
-2.89771
-1.54924
-0.181917
1.35146
3.24001
5.76066
9.35806
14.7934
23.332
36.8247
58.7359
98.7954
162.053
-51.2902
-26.9023
-14.914
-9.71315
-6.72469
-4.74028
-3.32748
-2.21722
-1.24322
-0.290483
0.748872
2.00962
3.69796
6.18303
10.2078
17.2553
30.1536
57.1174
129.509
290.853
)
;

boundaryField
{
    movingWall
    {
        type            zeroGradient;
    }
    fixedWalls
    {
        type            zeroGradient;
    }
    frontAndBack
    {
        type            empty;
    }
}


// ************************************************************************* //
